ITEM: TIMESTEP
0
ITEM: NUMBER OF ATOMS
1
ITEM: BOX BOUNDS ff ff ff
-1.0000000000000000e+02 1.0000000000000000e+02
-1.0000000000000000e+02 1.0000000000000000e+02
-1.0000000000000000e+02 1.0000000000000000e+02
ITEM: ATOMS id type f_plane_yz_neg[1] f_plane_yz_neg[2] f_plane_yz_neg[3] f_plane_yz_neg[4] f_plane_yz_neg[5] f_plane_yz_neg[6] f_plane_yz_neg[7] f_plane_yz_neg[8]
1 1 0 0 0 0 0 0 0 0
ITEM: TIMESTEP
1
ITEM: NUMBER OF ATOMS
1
ITEM: BOX BOUNDS ff ff ff
-1.0000000000000000e+02 1.0000000000000000e+02
-1.0000000000000000e+02 1.0000000000000000e+02
-1.0000000000000000e+02 1.0000000000000000e+02
ITEM: ATOMS id type f_plane_yz_neg[1] f_plane_yz_neg[2] f_plane_yz_neg[3] f_plane_yz_neg[4] f_plane_yz_neg[5] f_plane_yz_neg[6] f_plane_yz_neg[7] f_plane_yz_neg[8]
1 1 1 7.35708e+07 0 0 -10 0 0 10.1
ITEM: TIMESTEP
2
ITEM: NUMBER OF ATOMS
1
ITEM: BOX BOUNDS ff ff ff
-1.0000000000000000e+02 1.0000000000000000e+02
-1.0000000000000000e+02 1.0000000000000000e+02
-1.0000000000000000e+02 1.0000000000000000e+02
ITEM: ATOMS id type f_plane_yz_neg[1] f_plane_yz_neg[2] f_plane_yz_neg[3] f_plane_yz_neg[4] f_plane_yz_neg[5] f_plane_yz_neg[6] f_plane_yz_neg[7] f_plane_yz_neg[8]
1 1 1 2.08965e+08 0 0 -10 0 0 10.2
ITEM: TIMESTEP
3
ITEM: NUMBER OF ATOMS
1
ITEM: BOX BOUNDS ff ff ff
-1.0000000000000000e+02 1.0000000000000000e+02
-1.0000000000000000e+02 1.0000000000000000e+02
-1.0000000000000000e+02 1.0000000000000000e+02
ITEM: ATOMS id type f_plane_yz_neg[1] f_plane_yz_neg[2] f_plane_yz_neg[3] f_plane_yz_neg[4] f_plane_yz_neg[5] f_plane_yz_neg[6] f_plane_yz_neg[7] f_plane_yz_neg[8]
1 1 1 3.85493e+08 0 0 -10 0 0 10.3
ITEM: TIMESTEP
4
ITEM: NUMBER OF ATOMS
1
ITEM: BOX BOUNDS ff ff ff
-1.0000000000000000e+02 1.0000000000000000e+02
-1.0000000000000000e+02 1.0000000000000000e+02
-1.0000000000000000e+02 1.0000000000000000e+02
ITEM: ATOMS id type f_plane_yz_neg[1] f_plane_yz_neg[2] f_plane_yz_neg[3] f_plane_yz_neg[4] f_plane_yz_neg[5] f_plane_yz_neg[6] f_plane_yz_neg[7] f_plane_yz_neg[8]
1 1 1 5.9596e+08 0 0 -10 0 0 10.4
ITEM: TIMESTEP
5
ITEM: NUMBER OF ATOMS
1
ITEM: BOX BOUNDS ff ff ff
-1.0000000000000000e+02 1.0000000000000000e+02
-1.0000000000000000e+02 1.0000000000000000e+02
-1.0000000000000000e+02 1.0000000000000000e+02
ITEM: ATOMS id type f_plane_yz_neg[1] f_plane_yz_neg[2] f_plane_yz_neg[3] f_plane_yz_neg[4] f_plane_yz_neg[5] f_plane_yz_neg[6] f_plane_yz_neg[7] f_plane_yz_neg[8]
1 1 1 8.36296e+08 0 0 -10 0 0 10.5
ITEM: TIMESTEP
6
ITEM: NUMBER OF ATOMS
1
ITEM: BOX BOUNDS ff ff ff
-1.0000000000000000e+02 1.0000000000000000e+02
-1.0000000000000000e+02 1.0000000000000000e+02
-1.0000000000000000e+02 1.0000000000000000e+02
ITEM: ATOMS id type f_plane_yz_neg[1] f_plane_yz_neg[2] f_plane_yz_neg[3] f_plane_yz_neg[4] f_plane_yz_neg[5] f_plane_yz_neg[6] f_plane_yz_neg[7] f_plane_yz_neg[8]
1 1 1 1.10381e+09 0 0 -10 0 0 10.6
ITEM: TIMESTEP
7
ITEM: NUMBER OF ATOMS
1
ITEM: BOX BOUNDS ff ff ff
-1.0000000000000000e+02 1.0000000000000000e+02
-1.0000000000000000e+02 1.0000000000000000e+02
-1.0000000000000000e+02 1.0000000000000000e+02
ITEM: ATOMS id type f_plane_yz_neg[1] f_plane_yz_neg[2] f_plane_yz_neg[3] f_plane_yz_neg[4] f_plane_yz_neg[5] f_plane_yz_neg[6] f_plane_yz_neg[7] f_plane_yz_neg[8]
1 1 1 1.36023e+09 0 0 -10 0 0 10.7
ITEM: TIMESTEP
8
ITEM: NUMBER OF ATOMS
1
ITEM: BOX BOUNDS ff ff ff
-1.0000000000000000e+02 1.0000000000000000e+02
-1.0000000000000000e+02 1.0000000000000000e+02
-1.0000000000000000e+02 1.0000000000000000e+02
ITEM: ATOMS id type f_plane_yz_neg[1] f_plane_yz_neg[2] f_plane_yz_neg[3] f_plane_yz_neg[4] f_plane_yz_neg[5] f_plane_yz_neg[6] f_plane_yz_neg[7] f_plane_yz_neg[8]
1 1 1 1.71356e+09 0 0 -10 0 0 10.8
ITEM: TIMESTEP
9
ITEM: NUMBER OF ATOMS
1
ITEM: BOX BOUNDS ff ff ff
-1.0000000000000000e+02 1.0000000000000000e+02
-1.0000000000000000e+02 1.0000000000000000e+02
-1.0000000000000000e+02 1.0000000000000000e+02
ITEM: ATOMS id type f_plane_yz_neg[1] f_plane_yz_neg[2] f_plane_yz_neg[3] f_plane_yz_neg[4] f_plane_yz_neg[5] f_plane_yz_neg[6] f_plane_yz_neg[7] f_plane_yz_neg[8]
1 1 1 2.0563e+09 0 0 -10 0 0 10.9
ITEM: TIMESTEP
10
ITEM: NUMBER OF ATOMS
1
ITEM: BOX BOUNDS ff ff ff
-1.0000000000000000e+02 1.0000000000000000e+02
-1.0000000000000000e+02 1.0000000000000000e+02
-1.0000000000000000e+02 1.0000000000000000e+02
ITEM: ATOMS id type f_plane_yz_neg[1] f_plane_yz_neg[2] f_plane_yz_neg[3] f_plane_yz_neg[4] f_plane_yz_neg[5] f_plane_yz_neg[6] f_plane_yz_neg[7] f_plane_yz_neg[8]
1 1 1 2.3894e+09 0 0 -10 0 0 11
ITEM: TIMESTEP
11
ITEM: NUMBER OF ATOMS
1
ITEM: BOX BOUNDS ff ff ff
-1.0000000000000000e+02 1.0000000000000000e+02
-1.0000000000000000e+02 1.0000000000000000e+02
-1.0000000000000000e+02 1.0000000000000000e+02
ITEM: ATOMS id type f_plane_yz_neg[1] f_plane_yz_neg[2] f_plane_yz_neg[3] f_plane_yz_neg[4] f_plane_yz_neg[5] f_plane_yz_neg[6] f_plane_yz_neg[7] f_plane_yz_neg[8]
1 1 1 2.71373e+09 0 0 -10 0 0 11.1
ITEM: TIMESTEP
12
ITEM: NUMBER OF ATOMS
1
ITEM: BOX BOUNDS ff ff ff
-1.0000000000000000e+02 1.0000000000000000e+02
-1.0000000000000000e+02 1.0000000000000000e+02
-1.0000000000000000e+02 1.0000000000000000e+02
ITEM: ATOMS id type f_plane_yz_neg[1] f_plane_yz_neg[2] f_plane_yz_neg[3] f_plane_yz_neg[4] f_plane_yz_neg[5] f_plane_yz_neg[6] f_plane_yz_neg[7] f_plane_yz_neg[8]
1 1 1 3.03007e+09 0 0 -10 0 0 11.2
ITEM: TIMESTEP
13
ITEM: NUMBER OF ATOMS
1
ITEM: BOX BOUNDS ff ff ff
-1.0000000000000000e+02 1.0000000000000000e+02
-1.0000000000000000e+02 1.0000000000000000e+02
-1.0000000000000000e+02 1.0000000000000000e+02
ITEM: ATOMS id type f_plane_yz_neg[1] f_plane_yz_neg[2] f_plane_yz_neg[3] f_plane_yz_neg[4] f_plane_yz_neg[5] f_plane_yz_neg[6] f_plane_yz_neg[7] f_plane_yz_neg[8]
1 1 1 3.33915e+09 0 0 -10 0 0 11.3
ITEM: TIMESTEP
14
ITEM: NUMBER OF ATOMS
1
ITEM: BOX BOUNDS ff ff ff
-1.0000000000000000e+02 1.0000000000000000e+02
-1.0000000000000000e+02 1.0000000000000000e+02
-1.0000000000000000e+02 1.0000000000000000e+02
ITEM: ATOMS id type f_plane_yz_neg[1] f_plane_yz_neg[2] f_plane_yz_neg[3] f_plane_yz_neg[4] f_plane_yz_neg[5] f_plane_yz_neg[6] f_plane_yz_neg[7] f_plane_yz_neg[8]
1 1 1 3.64163e+09 0 0 -10 0 0 11.4
ITEM: TIMESTEP
15
ITEM: NUMBER OF ATOMS
1
ITEM: BOX BOUNDS ff ff ff
-1.0000000000000000e+02 1.0000000000000000e+02
-1.0000000000000000e+02 1.0000000000000000e+02
-1.0000000000000000e+02 1.0000000000000000e+02
ITEM: ATOMS id type f_plane_yz_neg[1] f_plane_yz_neg[2] f_plane_yz_neg[3] f_plane_yz_neg[4] f_plane_yz_neg[5] f_plane_yz_neg[6] f_plane_yz_neg[7] f_plane_yz_neg[8]
1 1 1 3.93811e+09 0 0 -10 0 0 11.5
ITEM: TIMESTEP
16
ITEM: NUMBER OF ATOMS
1
ITEM: BOX BOUNDS ff ff ff
-1.0000000000000000e+02 1.0000000000000000e+02
-1.0000000000000000e+02 1.0000000000000000e+02
-1.0000000000000000e+02 1.0000000000000000e+02
ITEM: ATOMS id type f_plane_yz_neg[1] f_plane_yz_neg[2] f_plane_yz_neg[3] f_plane_yz_neg[4] f_plane_yz_neg[5] f_plane_yz_neg[6] f_plane_yz_neg[7] f_plane_yz_neg[8]
1 1 1 4.22915e+09 0 0 -10 0 0 11.6
ITEM: TIMESTEP
17
ITEM: NUMBER OF ATOMS
1
ITEM: BOX BOUNDS ff ff ff
-1.0000000000000000e+02 1.0000000000000000e+02
-1.0000000000000000e+02 1.0000000000000000e+02
-1.0000000000000000e+02 1.0000000000000000e+02
ITEM: ATOMS id type f_plane_yz_neg[1] f_plane_yz_neg[2] f_plane_yz_neg[3] f_plane_yz_neg[4] f_plane_yz_neg[5] f_plane_yz_neg[6] f_plane_yz_neg[7] f_plane_yz_neg[8]
1 1 1 4.51527e+09 0 0 -10 0 0 11.7
ITEM: TIMESTEP
18
ITEM: NUMBER OF ATOMS
1
ITEM: BOX BOUNDS ff ff ff
-1.0000000000000000e+02 1.0000000000000000e+02
-1.0000000000000000e+02 1.0000000000000000e+02
-1.0000000000000000e+02 1.0000000000000000e+02
ITEM: ATOMS id type f_plane_yz_neg[1] f_plane_yz_neg[2] f_plane_yz_neg[3] f_plane_yz_neg[4] f_plane_yz_neg[5] f_plane_yz_neg[6] f_plane_yz_neg[7] f_plane_yz_neg[8]
1 1 1 4.79693e+09 0 0 -10 0 0 11.8
ITEM: TIMESTEP
19
ITEM: NUMBER OF ATOMS
1
ITEM: BOX BOUNDS ff ff ff
-1.0000000000000000e+02 1.0000000000000000e+02
-1.0000000000000000e+02 1.0000000000000000e+02
-1.0000000000000000e+02 1.0000000000000000e+02
ITEM: ATOMS id type f_plane_yz_neg[1] f_plane_yz_neg[2] f_plane_yz_neg[3] f_plane_yz_neg[4] f_plane_yz_neg[5] f_plane_yz_neg[6] f_plane_yz_neg[7] f_plane_yz_neg[8]
1 1 1 5.07455e+09 0 0 -10 0 0 11.9
ITEM: TIMESTEP
20
ITEM: NUMBER OF ATOMS
1
ITEM: BOX BOUNDS ff ff ff
-1.0000000000000000e+02 1.0000000000000000e+02
-1.0000000000000000e+02 1.0000000000000000e+02
-1.0000000000000000e+02 1.0000000000000000e+02
ITEM: ATOMS id type f_plane_yz_neg[1] f_plane_yz_neg[2] f_plane_yz_neg[3] f_plane_yz_neg[4] f_plane_yz_neg[5] f_plane_yz_neg[6] f_plane_yz_neg[7] f_plane_yz_neg[8]
1 1 1 5.34854e+09 0 0 -10 0 0 12
ITEM: TIMESTEP
21
ITEM: NUMBER OF ATOMS
1
ITEM: BOX BOUNDS ff ff ff
-1.0000000000000000e+02 1.0000000000000000e+02
-1.0000000000000000e+02 1.0000000000000000e+02
-1.0000000000000000e+02 1.0000000000000000e+02
ITEM: ATOMS id type f_plane_yz_neg[1] f_plane_yz_neg[2] f_plane_yz_neg[3] f_plane_yz_neg[4] f_plane_yz_neg[5] f_plane_yz_neg[6] f_plane_yz_neg[7] f_plane_yz_neg[8]
1 1 1 5.61927e+09 0 0 -10 0 0 12.1
ITEM: TIMESTEP
22
ITEM: NUMBER OF ATOMS
1
ITEM: BOX BOUNDS ff ff ff
-1.0000000000000000e+02 1.0000000000000000e+02
-1.0000000000000000e+02 1.0000000000000000e+02
-1.0000000000000000e+02 1.0000000000000000e+02
ITEM: ATOMS id type f_plane_yz_neg[1] f_plane_yz_neg[2] f_plane_yz_neg[3] f_plane_yz_neg[4] f_plane_yz_neg[5] f_plane_yz_neg[6] f_plane_yz_neg[7] f_plane_yz_neg[8]
1 1 1 5.88706e+09 0 0 -10 0 0 12.2
ITEM: TIMESTEP
23
ITEM: NUMBER OF ATOMS
1
ITEM: BOX BOUNDS ff ff ff
-1.0000000000000000e+02 1.0000000000000000e+02
-1.0000000000000000e+02 1.0000000000000000e+02
-1.0000000000000000e+02 1.0000000000000000e+02
ITEM: ATOMS id type f_plane_yz_neg[1] f_plane_yz_neg[2] f_plane_yz_neg[3] f_plane_yz_neg[4] f_plane_yz_neg[5] f_plane_yz_neg[6] f_plane_yz_neg[7] f_plane_yz_neg[8]
1 1 1 6.15222e+09 0 0 -10 0 0 12.3
ITEM: TIMESTEP
24
ITEM: NUMBER OF ATOMS
1
ITEM: BOX BOUNDS ff ff ff
-1.0000000000000000e+02 1.0000000000000000e+02
-1.0000000000000000e+02 1.0000000000000000e+02
-1.0000000000000000e+02 1.0000000000000000e+02
ITEM: ATOMS id type f_plane_yz_neg[1] f_plane_yz_neg[2] f_plane_yz_neg[3] f_plane_yz_neg[4] f_plane_yz_neg[5] f_plane_yz_neg[6] f_plane_yz_neg[7] f_plane_yz_neg[8]
1 1 1 6.41505e+09 0 0 -10 0 0 12.4
ITEM: TIMESTEP
25
ITEM: NUMBER OF ATOMS
1
ITEM: BOX BOUNDS ff ff ff
-1.0000000000000000e+02 1.0000000000000000e+02
-1.0000000000000000e+02 1.0000000000000000e+02
-1.0000000000000000e+02 1.0000000000000000e+02
ITEM: ATOMS id type f_plane_yz_neg[1] f_plane_yz_neg[2] f_plane_yz_neg[3] f_plane_yz_neg[4] f_plane_yz_neg[5] f_plane_yz_neg[6] f_plane_yz_neg[7] f_plane_yz_neg[8]
1 1 1 6.67581e+09 0 0 -10 0 0 12.5
ITEM: TIMESTEP
26
ITEM: NUMBER OF ATOMS
1
ITEM: BOX BOUNDS ff ff ff
-1.0000000000000000e+02 1.0000000000000000e+02
-1.0000000000000000e+02 1.0000000000000000e+02
-1.0000000000000000e+02 1.0000000000000000e+02
ITEM: ATOMS id type f_plane_yz_neg[1] f_plane_yz_neg[2] f_plane_yz_neg[3] f_plane_yz_neg[4] f_plane_yz_neg[5] f_plane_yz_neg[6] f_plane_yz_neg[7] f_plane_yz_neg[8]
1 1 1 6.93475e+09 0 0 -10 0 0 12.6
ITEM: TIMESTEP
27
ITEM: NUMBER OF ATOMS
1
ITEM: BOX BOUNDS ff ff ff
-1.0000000000000000e+02 1.0000000000000000e+02
-1.0000000000000000e+02 1.0000000000000000e+02
-1.0000000000000000e+02 1.0000000000000000e+02
ITEM: ATOMS id type f_plane_yz_neg[1] f_plane_yz_neg[2] f_plane_yz_neg[3] f_plane_yz_neg[4] f_plane_yz_neg[5] f_plane_yz_neg[6] f_plane_yz_neg[7] f_plane_yz_neg[8]
1 1 1 7.19208e+09 0 0 -10 0 0 12.7
ITEM: TIMESTEP
28
ITEM: NUMBER OF ATOMS
1
ITEM: BOX BOUNDS ff ff ff
-1.0000000000000000e+02 1.0000000000000000e+02
-1.0000000000000000e+02 1.0000000000000000e+02
-1.0000000000000000e+02 1.0000000000000000e+02
ITEM: ATOMS id type f_plane_yz_neg[1] f_plane_yz_neg[2] f_plane_yz_neg[3] f_plane_yz_neg[4] f_plane_yz_neg[5] f_plane_yz_neg[6] f_plane_yz_neg[7] f_plane_yz_neg[8]
1 1 1 7.44803e+09 0 0 -10 0 0 12.8
ITEM: TIMESTEP
29
ITEM: NUMBER OF ATOMS
1
ITEM: BOX BOUNDS ff ff ff
-1.0000000000000000e+02 1.0000000000000000e+02
-1.0000000000000000e+02 1.0000000000000000e+02
-1.0000000000000000e+02 1.0000000000000000e+02
ITEM: ATOMS id type f_plane_yz_neg[1] f_plane_yz_neg[2] f_plane_yz_neg[3] f_plane_yz_neg[4] f_plane_yz_neg[5] f_plane_yz_neg[6] f_plane_yz_neg[7] f_plane_yz_neg[8]
1 1 1 7.70278e+09 0 0 -10 0 0 12.9
ITEM: TIMESTEP
30
ITEM: NUMBER OF ATOMS
1
ITEM: BOX BOUNDS ff ff ff
-1.0000000000000000e+02 1.0000000000000000e+02
-1.0000000000000000e+02 1.0000000000000000e+02
-1.0000000000000000e+02 1.0000000000000000e+02
ITEM: ATOMS id type f_plane_yz_neg[1] f_plane_yz_neg[2] f_plane_yz_neg[3] f_plane_yz_neg[4] f_plane_yz_neg[5] f_plane_yz_neg[6] f_plane_yz_neg[7] f_plane_yz_neg[8]
1 1 1 7.95652e+09 0 0 -10 0 0 13
ITEM: TIMESTEP
31
ITEM: NUMBER OF ATOMS
1
ITEM: BOX BOUNDS ff ff ff
-1.0000000000000000e+02 1.0000000000000000e+02
-1.0000000000000000e+02 1.0000000000000000e+02
-1.0000000000000000e+02 1.0000000000000000e+02
ITEM: ATOMS id type f_plane_yz_neg[1] f_plane_yz_neg[2] f_plane_yz_neg[3] f_plane_yz_neg[4] f_plane_yz_neg[5] f_plane_yz_neg[6] f_plane_yz_neg[7] f_plane_yz_neg[8]
1 1 1 8.20941e+09 0 0 -10 0 0 13.1
ITEM: TIMESTEP
32
ITEM: NUMBER OF ATOMS
1
ITEM: BOX BOUNDS ff ff ff
-1.0000000000000000e+02 1.0000000000000000e+02
-1.0000000000000000e+02 1.0000000000000000e+02
-1.0000000000000000e+02 1.0000000000000000e+02
ITEM: ATOMS id type f_plane_yz_neg[1] f_plane_yz_neg[2] f_plane_yz_neg[3] f_plane_yz_neg[4] f_plane_yz_neg[5] f_plane_yz_neg[6] f_plane_yz_neg[7] f_plane_yz_neg[8]
1 1 1 8.46161e+09 0 0 -10 0 0 13.2
ITEM: TIMESTEP
33
ITEM: NUMBER OF ATOMS
1
ITEM: BOX BOUNDS ff ff ff
-1.0000000000000000e+02 1.0000000000000000e+02
-1.0000000000000000e+02 1.0000000000000000e+02
-1.0000000000000000e+02 1.0000000000000000e+02
ITEM: ATOMS id type f_plane_yz_neg[1] f_plane_yz_neg[2] f_plane_yz_neg[3] f_plane_yz_neg[4] f_plane_yz_neg[5] f_plane_yz_neg[6] f_plane_yz_neg[7] f_plane_yz_neg[8]
1 1 1 8.71327e+09 0 0 -10 0 0 13.3
ITEM: TIMESTEP
34
ITEM: NUMBER OF ATOMS
1
ITEM: BOX BOUNDS ff ff ff
-1.0000000000000000e+02 1.0000000000000000e+02
-1.0000000000000000e+02 1.0000000000000000e+02
-1.0000000000000000e+02 1.0000000000000000e+02
ITEM: ATOMS id type f_plane_yz_neg[1] f_plane_yz_neg[2] f_plane_yz_neg[3] f_plane_yz_neg[4] f_plane_yz_neg[5] f_plane_yz_neg[6] f_plane_yz_neg[7] f_plane_yz_neg[8]
1 1 1 8.96451e+09 0 0 -10 0 0 13.4
ITEM: TIMESTEP
35
ITEM: NUMBER OF ATOMS
1
ITEM: BOX BOUNDS ff ff ff
-1.0000000000000000e+02 1.0000000000000000e+02
-1.0000000000000000e+02 1.0000000000000000e+02
-1.0000000000000000e+02 1.0000000000000000e+02
ITEM: ATOMS id type f_plane_yz_neg[1] f_plane_yz_neg[2] f_plane_yz_neg[3] f_plane_yz_neg[4] f_plane_yz_neg[5] f_plane_yz_neg[6] f_plane_yz_neg[7] f_plane_yz_neg[8]
1 1 1 9.21547e+09 0 0 -10 0 0 13.5
ITEM: TIMESTEP
36
ITEM: NUMBER OF ATOMS
1
ITEM: BOX BOUNDS ff ff ff
-1.0000000000000000e+02 1.0000000000000000e+02
-1.0000000000000000e+02 1.0000000000000000e+02
-1.0000000000000000e+02 1.0000000000000000e+02
ITEM: ATOMS id type f_plane_yz_neg[1] f_plane_yz_neg[2] f_plane_yz_neg[3] f_plane_yz_neg[4] f_plane_yz_neg[5] f_plane_yz_neg[6] f_plane_yz_neg[7] f_plane_yz_neg[8]
1 1 1 9.46626e+09 0 0 -10 0 0 13.6
ITEM: TIMESTEP
37
ITEM: NUMBER OF ATOMS
1
ITEM: BOX BOUNDS ff ff ff
-1.0000000000000000e+02 1.0000000000000000e+02
-1.0000000000000000e+02 1.0000000000000000e+02
-1.0000000000000000e+02 1.0000000000000000e+02
ITEM: ATOMS id type f_plane_yz_neg[1] f_plane_yz_neg[2] f_plane_yz_neg[3] f_plane_yz_neg[4] f_plane_yz_neg[5] f_plane_yz_neg[6] f_plane_yz_neg[7] f_plane_yz_neg[8]
1 1 1 9.71699e+09 0 0 -10 0 0 13.7
ITEM: TIMESTEP
38
ITEM: NUMBER OF ATOMS
1
ITEM: BOX BOUNDS ff ff ff
-1.0000000000000000e+02 1.0000000000000000e+02
-1.0000000000000000e+02 1.0000000000000000e+02
-1.0000000000000000e+02 1.0000000000000000e+02
ITEM: ATOMS id type f_plane_yz_neg[1] f_plane_yz_neg[2] f_plane_yz_neg[3] f_plane_yz_neg[4] f_plane_yz_neg[5] f_plane_yz_neg[6] f_plane_yz_neg[7] f_plane_yz_neg[8]
1 1 1 9.96776e+09 0 0 -10 0 0 13.8
ITEM: TIMESTEP
39
ITEM: NUMBER OF ATOMS
1
ITEM: BOX BOUNDS ff ff ff
-1.0000000000000000e+02 1.0000000000000000e+02
-1.0000000000000000e+02 1.0000000000000000e+02
-1.0000000000000000e+02 1.0000000000000000e+02
ITEM: ATOMS id type f_plane_yz_neg[1] f_plane_yz_neg[2] f_plane_yz_neg[3] f_plane_yz_neg[4] f_plane_yz_neg[5] f_plane_yz_neg[6] f_plane_yz_neg[7] f_plane_yz_neg[8]
1 1 1 1.02187e+10 0 0 -10 0 0 13.9
ITEM: TIMESTEP
40
ITEM: NUMBER OF ATOMS
1
ITEM: BOX BOUNDS ff ff ff
-1.0000000000000000e+02 1.0000000000000000e+02
-1.0000000000000000e+02 1.0000000000000000e+02
-1.0000000000000000e+02 1.0000000000000000e+02
ITEM: ATOMS id type f_plane_yz_neg[1] f_plane_yz_neg[2] f_plane_yz_neg[3] f_plane_yz_neg[4] f_plane_yz_neg[5] f_plane_yz_neg[6] f_plane_yz_neg[7] f_plane_yz_neg[8]
1 1 1 1.04698e+10 0 0 -10 0 0 14
ITEM: TIMESTEP
41
ITEM: NUMBER OF ATOMS
1
ITEM: BOX BOUNDS ff ff ff
-1.0000000000000000e+02 1.0000000000000000e+02
-1.0000000000000000e+02 1.0000000000000000e+02
-1.0000000000000000e+02 1.0000000000000000e+02
ITEM: ATOMS id type f_plane_yz_neg[1] f_plane_yz_neg[2] f_plane_yz_neg[3] f_plane_yz_neg[4] f_plane_yz_neg[5] f_plane_yz_neg[6] f_plane_yz_neg[7] f_plane_yz_neg[8]
1 1 1 1.07212e+10 0 0 -10 0 0 14.1
ITEM: TIMESTEP
42
ITEM: NUMBER OF ATOMS
1
ITEM: BOX BOUNDS ff ff ff
-1.0000000000000000e+02 1.0000000000000000e+02
-1.0000000000000000e+02 1.0000000000000000e+02
-1.0000000000000000e+02 1.0000000000000000e+02
ITEM: ATOMS id type f_plane_yz_neg[1] f_plane_yz_neg[2] f_plane_yz_neg[3] f_plane_yz_neg[4] f_plane_yz_neg[5] f_plane_yz_neg[6] f_plane_yz_neg[7] f_plane_yz_neg[8]
1 1 1 1.0973e+10 0 0 -10 0 0 14.2
ITEM: TIMESTEP
43
ITEM: NUMBER OF ATOMS
1
ITEM: BOX BOUNDS ff ff ff
-1.0000000000000000e+02 1.0000000000000000e+02
-1.0000000000000000e+02 1.0000000000000000e+02
-1.0000000000000000e+02 1.0000000000000000e+02
ITEM: ATOMS id type f_plane_yz_neg[1] f_plane_yz_neg[2] f_plane_yz_neg[3] f_plane_yz_neg[4] f_plane_yz_neg[5] f_plane_yz_neg[6] f_plane_yz_neg[7] f_plane_yz_neg[8]
1 1 1 1.12253e+10 0 0 -10 0 0 14.3
ITEM: TIMESTEP
44
ITEM: NUMBER OF ATOMS
1
ITEM: BOX BOUNDS ff ff ff
-1.0000000000000000e+02 1.0000000000000000e+02
-1.0000000000000000e+02 1.0000000000000000e+02
-1.0000000000000000e+02 1.0000000000000000e+02
ITEM: ATOMS id type f_plane_yz_neg[1] f_plane_yz_neg[2] f_plane_yz_neg[3] f_plane_yz_neg[4] f_plane_yz_neg[5] f_plane_yz_neg[6] f_plane_yz_neg[7] f_plane_yz_neg[8]
1 1 1 1.14781e+10 0 0 -10 0 0 14.4
ITEM: TIMESTEP
45
ITEM: NUMBER OF ATOMS
1
ITEM: BOX BOUNDS ff ff ff
-1.0000000000000000e+02 1.0000000000000000e+02
-1.0000000000000000e+02 1.0000000000000000e+02
-1.0000000000000000e+02 1.0000000000000000e+02
ITEM: ATOMS id type f_plane_yz_neg[1] f_plane_yz_neg[2] f_plane_yz_neg[3] f_plane_yz_neg[4] f_plane_yz_neg[5] f_plane_yz_neg[6] f_plane_yz_neg[7] f_plane_yz_neg[8]
1 1 1 1.17315e+10 0 0 -10 0 0 14.5
ITEM: TIMESTEP
46
ITEM: NUMBER OF ATOMS
1
ITEM: BOX BOUNDS ff ff ff
-1.0000000000000000e+02 1.0000000000000000e+02
-1.0000000000000000e+02 1.0000000000000000e+02
-1.0000000000000000e+02 1.0000000000000000e+02
ITEM: ATOMS id type f_plane_yz_neg[1] f_plane_yz_neg[2] f_plane_yz_neg[3] f_plane_yz_neg[4] f_plane_yz_neg[5] f_plane_yz_neg[6] f_plane_yz_neg[7] f_plane_yz_neg[8]
1 1 1 1.19855e+10 0 0 -10 0 0 14.6
ITEM: TIMESTEP
47
ITEM: NUMBER OF ATOMS
1
ITEM: BOX BOUNDS ff ff ff
-1.0000000000000000e+02 1.0000000000000000e+02
-1.0000000000000000e+02 1.0000000000000000e+02
-1.0000000000000000e+02 1.0000000000000000e+02
ITEM: ATOMS id type f_plane_yz_neg[1] f_plane_yz_neg[2] f_plane_yz_neg[3] f_plane_yz_neg[4] f_plane_yz_neg[5] f_plane_yz_neg[6] f_plane_yz_neg[7] f_plane_yz_neg[8]
1 1 1 1.22403e+10 0 0 -10 0 0 14.7
ITEM: TIMESTEP
48
ITEM: NUMBER OF ATOMS
1
ITEM: BOX BOUNDS ff ff ff
-1.0000000000000000e+02 1.0000000000000000e+02
-1.0000000000000000e+02 1.0000000000000000e+02
-1.0000000000000000e+02 1.0000000000000000e+02
ITEM: ATOMS id type f_plane_yz_neg[1] f_plane_yz_neg[2] f_plane_yz_neg[3] f_plane_yz_neg[4] f_plane_yz_neg[5] f_plane_yz_neg[6] f_plane_yz_neg[7] f_plane_yz_neg[8]
1 1 1 1.24958e+10 0 0 -10 0 0 14.8
ITEM: TIMESTEP
49
ITEM: NUMBER OF ATOMS
1
ITEM: BOX BOUNDS ff ff ff
-1.0000000000000000e+02 1.0000000000000000e+02
-1.0000000000000000e+02 1.0000000000000000e+02
-1.0000000000000000e+02 1.0000000000000000e+02
ITEM: ATOMS id type f_plane_yz_neg[1] f_plane_yz_neg[2] f_plane_yz_neg[3] f_plane_yz_neg[4] f_plane_yz_neg[5] f_plane_yz_neg[6] f_plane_yz_neg[7] f_plane_yz_neg[8]
1 1 1 1.27521e+10 0 0 -10 0 0 14.9
ITEM: TIMESTEP
50
ITEM: NUMBER OF ATOMS
1
ITEM: BOX BOUNDS ff ff ff
-1.0000000000000000e+02 1.0000000000000000e+02
-1.0000000000000000e+02 1.0000000000000000e+02
-1.0000000000000000e+02 1.0000000000000000e+02
ITEM: ATOMS id type f_plane_yz_neg[1] f_plane_yz_neg[2] f_plane_yz_neg[3] f_plane_yz_neg[4] f_plane_yz_neg[5] f_plane_yz_neg[6] f_plane_yz_neg[7] f_plane_yz_neg[8]
1 1 1 1.30092e+10 0 0 -10 0 0 15
ITEM: TIMESTEP
51
ITEM: NUMBER OF ATOMS
1
ITEM: BOX BOUNDS ff ff ff
-1.0000000000000000e+02 1.0000000000000000e+02
-1.0000000000000000e+02 1.0000000000000000e+02
-1.0000000000000000e+02 1.0000000000000000e+02
ITEM: ATOMS id type f_plane_yz_neg[1] f_plane_yz_neg[2] f_plane_yz_neg[3] f_plane_yz_neg[4] f_plane_yz_neg[5] f_plane_yz_neg[6] f_plane_yz_neg[7] f_plane_yz_neg[8]
1 1 1 1.32672e+10 0 0 -10 0 0 15.1
ITEM: TIMESTEP
52
ITEM: NUMBER OF ATOMS
1
ITEM: BOX BOUNDS ff ff ff
-1.0000000000000000e+02 1.0000000000000000e+02
-1.0000000000000000e+02 1.0000000000000000e+02
-1.0000000000000000e+02 1.0000000000000000e+02
ITEM: ATOMS id type f_plane_yz_neg[1] f_plane_yz_neg[2] f_plane_yz_neg[3] f_plane_yz_neg[4] f_plane_yz_neg[5] f_plane_yz_neg[6] f_plane_yz_neg[7] f_plane_yz_neg[8]
1 1 1 1.35262e+10 0 0 -10 0 0 15.2
ITEM: TIMESTEP
53
ITEM: NUMBER OF ATOMS
1
ITEM: BOX BOUNDS ff ff ff
-1.0000000000000000e+02 1.0000000000000000e+02
-1.0000000000000000e+02 1.0000000000000000e+02
-1.0000000000000000e+02 1.0000000000000000e+02
ITEM: ATOMS id type f_plane_yz_neg[1] f_plane_yz_neg[2] f_plane_yz_neg[3] f_plane_yz_neg[4] f_plane_yz_neg[5] f_plane_yz_neg[6] f_plane_yz_neg[7] f_plane_yz_neg[8]
1 1 1 1.37861e+10 0 0 -10 0 0 15.3
ITEM: TIMESTEP
54
ITEM: NUMBER OF ATOMS
1
ITEM: BOX BOUNDS ff ff ff
-1.0000000000000000e+02 1.0000000000000000e+02
-1.0000000000000000e+02 1.0000000000000000e+02
-1.0000000000000000e+02 1.0000000000000000e+02
ITEM: ATOMS id type f_plane_yz_neg[1] f_plane_yz_neg[2] f_plane_yz_neg[3] f_plane_yz_neg[4] f_plane_yz_neg[5] f_plane_yz_neg[6] f_plane_yz_neg[7] f_plane_yz_neg[8]
1 1 1 1.4047e+10 0 0 -10 0 0 15.4
ITEM: TIMESTEP
55
ITEM: NUMBER OF ATOMS
1
ITEM: BOX BOUNDS ff ff ff
-1.0000000000000000e+02 1.0000000000000000e+02
-1.0000000000000000e+02 1.0000000000000000e+02
-1.0000000000000000e+02 1.0000000000000000e+02
ITEM: ATOMS id type f_plane_yz_neg[1] f_plane_yz_neg[2] f_plane_yz_neg[3] f_plane_yz_neg[4] f_plane_yz_neg[5] f_plane_yz_neg[6] f_plane_yz_neg[7] f_plane_yz_neg[8]
1 1 1 1.4309e+10 0 0 -10 0 0 15.5
ITEM: TIMESTEP
56
ITEM: NUMBER OF ATOMS
1
ITEM: BOX BOUNDS ff ff ff
-1.0000000000000000e+02 1.0000000000000000e+02
-1.0000000000000000e+02 1.0000000000000000e+02
-1.0000000000000000e+02 1.0000000000000000e+02
ITEM: ATOMS id type f_plane_yz_neg[1] f_plane_yz_neg[2] f_plane_yz_neg[3] f_plane_yz_neg[4] f_plane_yz_neg[5] f_plane_yz_neg[6] f_plane_yz_neg[7] f_plane_yz_neg[8]
1 1 1 1.4572e+10 0 0 -10 0 0 15.6
ITEM: TIMESTEP
57
ITEM: NUMBER OF ATOMS
1
ITEM: BOX BOUNDS ff ff ff
-1.0000000000000000e+02 1.0000000000000000e+02
-1.0000000000000000e+02 1.0000000000000000e+02
-1.0000000000000000e+02 1.0000000000000000e+02
ITEM: ATOMS id type f_plane_yz_neg[1] f_plane_yz_neg[2] f_plane_yz_neg[3] f_plane_yz_neg[4] f_plane_yz_neg[5] f_plane_yz_neg[6] f_plane_yz_neg[7] f_plane_yz_neg[8]
1 1 1 1.48362e+10 0 0 -10 0 0 15.7
ITEM: TIMESTEP
58
ITEM: NUMBER OF ATOMS
1
ITEM: BOX BOUNDS ff ff ff
-1.0000000000000000e+02 1.0000000000000000e+02
-1.0000000000000000e+02 1.0000000000000000e+02
-1.0000000000000000e+02 1.0000000000000000e+02
ITEM: ATOMS id type f_plane_yz_neg[1] f_plane_yz_neg[2] f_plane_yz_neg[3] f_plane_yz_neg[4] f_plane_yz_neg[5] f_plane_yz_neg[6] f_plane_yz_neg[7] f_plane_yz_neg[8]
1 1 1 1.51015e+10 0 0 -10 0 0 15.8
ITEM: TIMESTEP
59
ITEM: NUMBER OF ATOMS
1
ITEM: BOX BOUNDS ff ff ff
-1.0000000000000000e+02 1.0000000000000000e+02
-1.0000000000000000e+02 1.0000000000000000e+02
-1.0000000000000000e+02 1.0000000000000000e+02
ITEM: ATOMS id type f_plane_yz_neg[1] f_plane_yz_neg[2] f_plane_yz_neg[3] f_plane_yz_neg[4] f_plane_yz_neg[5] f_plane_yz_neg[6] f_plane_yz_neg[7] f_plane_yz_neg[8]
1 1 1 1.53679e+10 0 0 -10 0 0 15.9
ITEM: TIMESTEP
60
ITEM: NUMBER OF ATOMS
1
ITEM: BOX BOUNDS ff ff ff
-1.0000000000000000e+02 1.0000000000000000e+02
-1.0000000000000000e+02 1.0000000000000000e+02
-1.0000000000000000e+02 1.0000000000000000e+02
ITEM: ATOMS id type f_plane_yz_neg[1] f_plane_yz_neg[2] f_plane_yz_neg[3] f_plane_yz_neg[4] f_plane_yz_neg[5] f_plane_yz_neg[6] f_plane_yz_neg[7] f_plane_yz_neg[8]
1 1 1 1.56355e+10 0 0 -10 0 0 16
ITEM: TIMESTEP
61
ITEM: NUMBER OF ATOMS
1
ITEM: BOX BOUNDS ff ff ff
-1.0000000000000000e+02 1.0000000000000000e+02
-1.0000000000000000e+02 1.0000000000000000e+02
-1.0000000000000000e+02 1.0000000000000000e+02
ITEM: ATOMS id type f_plane_yz_neg[1] f_plane_yz_neg[2] f_plane_yz_neg[3] f_plane_yz_neg[4] f_plane_yz_neg[5] f_plane_yz_neg[6] f_plane_yz_neg[7] f_plane_yz_neg[8]
1 1 1 1.59043e+10 0 0 -10 0 0 16.1
ITEM: TIMESTEP
62
ITEM: NUMBER OF ATOMS
1
ITEM: BOX BOUNDS ff ff ff
-1.0000000000000000e+02 1.0000000000000000e+02
-1.0000000000000000e+02 1.0000000000000000e+02
-1.0000000000000000e+02 1.0000000000000000e+02
ITEM: ATOMS id type f_plane_yz_neg[1] f_plane_yz_neg[2] f_plane_yz_neg[3] f_plane_yz_neg[4] f_plane_yz_neg[5] f_plane_yz_neg[6] f_plane_yz_neg[7] f_plane_yz_neg[8]
1 1 1 1.61743e+10 0 0 -10 0 0 16.2
ITEM: TIMESTEP
63
ITEM: NUMBER OF ATOMS
1
ITEM: BOX BOUNDS ff ff ff
-1.0000000000000000e+02 1.0000000000000000e+02
-1.0000000000000000e+02 1.0000000000000000e+02
-1.0000000000000000e+02 1.0000000000000000e+02
ITEM: ATOMS id type f_plane_yz_neg[1] f_plane_yz_neg[2] f_plane_yz_neg[3] f_plane_yz_neg[4] f_plane_yz_neg[5] f_plane_yz_neg[6] f_plane_yz_neg[7] f_plane_yz_neg[8]
1 1 1 1.64456e+10 0 0 -10 0 0 16.3
ITEM: TIMESTEP
64
ITEM: NUMBER OF ATOMS
1
ITEM: BOX BOUNDS ff ff ff
-1.0000000000000000e+02 1.0000000000000000e+02
-1.0000000000000000e+02 1.0000000000000000e+02
-1.0000000000000000e+02 1.0000000000000000e+02
ITEM: ATOMS id type f_plane_yz_neg[1] f_plane_yz_neg[2] f_plane_yz_neg[3] f_plane_yz_neg[4] f_plane_yz_neg[5] f_plane_yz_neg[6] f_plane_yz_neg[7] f_plane_yz_neg[8]
1 1 1 1.67181e+10 0 0 -10 0 0 16.4
ITEM: TIMESTEP
65
ITEM: NUMBER OF ATOMS
1
ITEM: BOX BOUNDS ff ff ff
-1.0000000000000000e+02 1.0000000000000000e+02
-1.0000000000000000e+02 1.0000000000000000e+02
-1.0000000000000000e+02 1.0000000000000000e+02
ITEM: ATOMS id type f_plane_yz_neg[1] f_plane_yz_neg[2] f_plane_yz_neg[3] f_plane_yz_neg[4] f_plane_yz_neg[5] f_plane_yz_neg[6] f_plane_yz_neg[7] f_plane_yz_neg[8]
1 1 1 1.69919e+10 0 0 -10 0 0 16.5
ITEM: TIMESTEP
66
ITEM: NUMBER OF ATOMS
1
ITEM: BOX BOUNDS ff ff ff
-1.0000000000000000e+02 1.0000000000000000e+02
-1.0000000000000000e+02 1.0000000000000000e+02
-1.0000000000000000e+02 1.0000000000000000e+02
ITEM: ATOMS id type f_plane_yz_neg[1] f_plane_yz_neg[2] f_plane_yz_neg[3] f_plane_yz_neg[4] f_plane_yz_neg[5] f_plane_yz_neg[6] f_plane_yz_neg[7] f_plane_yz_neg[8]
1 1 1 1.7267e+10 0 0 -10 0 0 16.6
ITEM: TIMESTEP
67
ITEM: NUMBER OF ATOMS
1
ITEM: BOX BOUNDS ff ff ff
-1.0000000000000000e+02 1.0000000000000000e+02
-1.0000000000000000e+02 1.0000000000000000e+02
-1.0000000000000000e+02 1.0000000000000000e+02
ITEM: ATOMS id type f_plane_yz_neg[1] f_plane_yz_neg[2] f_plane_yz_neg[3] f_plane_yz_neg[4] f_plane_yz_neg[5] f_plane_yz_neg[6] f_plane_yz_neg[7] f_plane_yz_neg[8]
1 1 1 1.75435e+10 0 0 -10 0 0 16.7
ITEM: TIMESTEP
68
ITEM: NUMBER OF ATOMS
1
ITEM: BOX BOUNDS ff ff ff
-1.0000000000000000e+02 1.0000000000000000e+02
-1.0000000000000000e+02 1.0000000000000000e+02
-1.0000000000000000e+02 1.0000000000000000e+02
ITEM: ATOMS id type f_plane_yz_neg[1] f_plane_yz_neg[2] f_plane_yz_neg[3] f_plane_yz_neg[4] f_plane_yz_neg[5] f_plane_yz_neg[6] f_plane_yz_neg[7] f_plane_yz_neg[8]
1 1 1 1.78212e+10 0 0 -10 0 0 16.8
ITEM: TIMESTEP
69
ITEM: NUMBER OF ATOMS
1
ITEM: BOX BOUNDS ff ff ff
-1.0000000000000000e+02 1.0000000000000000e+02
-1.0000000000000000e+02 1.0000000000000000e+02
-1.0000000000000000e+02 1.0000000000000000e+02
ITEM: ATOMS id type f_plane_yz_neg[1] f_plane_yz_neg[2] f_plane_yz_neg[3] f_plane_yz_neg[4] f_plane_yz_neg[5] f_plane_yz_neg[6] f_plane_yz_neg[7] f_plane_yz_neg[8]
1 1 1 1.81004e+10 0 0 -10 0 0 16.9
ITEM: TIMESTEP
70
ITEM: NUMBER OF ATOMS
1
ITEM: BOX BOUNDS ff ff ff
-1.0000000000000000e+02 1.0000000000000000e+02
-1.0000000000000000e+02 1.0000000000000000e+02
-1.0000000000000000e+02 1.0000000000000000e+02
ITEM: ATOMS id type f_plane_yz_neg[1] f_plane_yz_neg[2] f_plane_yz_neg[3] f_plane_yz_neg[4] f_plane_yz_neg[5] f_plane_yz_neg[6] f_plane_yz_neg[7] f_plane_yz_neg[8]
1 1 1 1.83808e+10 0 0 -10 0 0 17
ITEM: TIMESTEP
71
ITEM: NUMBER OF ATOMS
1
ITEM: BOX BOUNDS ff ff ff
-1.0000000000000000e+02 1.0000000000000000e+02
-1.0000000000000000e+02 1.0000000000000000e+02
-1.0000000000000000e+02 1.0000000000000000e+02
ITEM: ATOMS id type f_plane_yz_neg[1] f_plane_yz_neg[2] f_plane_yz_neg[3] f_plane_yz_neg[4] f_plane_yz_neg[5] f_plane_yz_neg[6] f_plane_yz_neg[7] f_plane_yz_neg[8]
1 1 1 1.86627e+10 0 0 -10 0 0 17.1
ITEM: TIMESTEP
72
ITEM: NUMBER OF ATOMS
1
ITEM: BOX BOUNDS ff ff ff
-1.0000000000000000e+02 1.0000000000000000e+02
-1.0000000000000000e+02 1.0000000000000000e+02
-1.0000000000000000e+02 1.0000000000000000e+02
ITEM: ATOMS id type f_plane_yz_neg[1] f_plane_yz_neg[2] f_plane_yz_neg[3] f_plane_yz_neg[4] f_plane_yz_neg[5] f_plane_yz_neg[6] f_plane_yz_neg[7] f_plane_yz_neg[8]
1 1 1 1.89459e+10 0 0 -10 0 0 17.2
ITEM: TIMESTEP
73
ITEM: NUMBER OF ATOMS
1
ITEM: BOX BOUNDS ff ff ff
-1.0000000000000000e+02 1.0000000000000000e+02
-1.0000000000000000e+02 1.0000000000000000e+02
-1.0000000000000000e+02 1.0000000000000000e+02