#LAMMPS data file created by matlab.
1 atoms

2 atom types

-0.002000 0.002000 xlo xhi
-0.002000 0.002000 ylo yhi
0.000000 0.040000 zlo zhi

Atoms

1 1 0.000800 1560.000000 0.0 0.0 0.038

