#LAMMPS data file created by matlab.
529 atoms

3 atom types

-0.0050000000 0.0050000000 xlo xhi
-0.0050000000 0.0050000000 ylo yhi
0.0000000000 0.0200000000 zlo zhi

Atoms

701 2 0.0008000000 1560.0000000000 -0.0036492693 -0.0036492693 0.0104000000
702 2 0.0008000000 1560.0000000000 -0.0036492693 -0.0033333333 0.0104000000
703 2 0.0008000000 1560.0000000000 -0.0036492693 -0.0030000000 0.0104000000
704 2 0.0008000000 1560.0000000000 -0.0036492693 -0.0026666667 0.0104000000
705 2 0.0008000000 1560.0000000000 -0.0036492693 -0.0023333333 0.0104000000
706 2 0.0008000000 1560.0000000000 -0.0036492693 -0.0020000000 0.0104000000
707 2 0.0008000000 1560.0000000000 -0.0036492693 -0.0016666667 0.0104000000
708 2 0.0008000000 1560.0000000000 -0.0036492693 -0.0013333333 0.0104000000
709 2 0.0008000000 1560.0000000000 -0.0036492693 -0.0010000000 0.0104000000
710 2 0.0008000000 1560.0000000000 -0.0036492693 -0.0006666667 0.0104000000
711 2 0.0008000000 1560.0000000000 -0.0036492693 -0.0003333333 0.0104000000
712 2 0.0008000000 1560.0000000000 -0.0036492693 0.0000000000 0.0104000000
713 2 0.0008000000 1560.0000000000 -0.0036492693 0.0003333333 0.0104000000
714 2 0.0008000000 1560.0000000000 -0.0036492693 0.0006666667 0.0104000000
715 2 0.0008000000 1560.0000000000 -0.0036492693 0.0010000000 0.0104000000
716 2 0.0008000000 1560.0000000000 -0.0036492693 0.0013333333 0.0104000000
717 2 0.0008000000 1560.0000000000 -0.0036492693 0.0016666667 0.0104000000
718 2 0.0008000000 1560.0000000000 -0.0036492693 0.0020000000 0.0104000000
719 2 0.0008000000 1560.0000000000 -0.0036492693 0.0023333333 0.0104000000
720 2 0.0008000000 1560.0000000000 -0.0036492693 0.0026666667 0.0104000000
721 2 0.0008000000 1560.0000000000 -0.0036492693 0.0030000000 0.0104000000
722 2 0.0008000000 1560.0000000000 -0.0036492693 0.0033333333 0.0104000000
723 2 0.0008000000 1560.0000000000 -0.0036492693 0.0036492693 0.0104000000
724 2 0.0008000000 1560.0000000000 -0.0033333333 -0.0036492693 0.0104000000
725 2 0.0008000000 1560.0000000000 -0.0033333333 -0.0033333333 0.0104000000
726 2 0.0008000000 1560.0000000000 -0.0033333333 -0.0030000000 0.0104000000
727 2 0.0008000000 1560.0000000000 -0.0033333333 -0.0026666667 0.0104000000
728 2 0.0008000000 1560.0000000000 -0.0033333333 -0.0023333333 0.0104000000
729 2 0.0008000000 1560.0000000000 -0.0033333333 -0.0020000000 0.0104000000
730 2 0.0008000000 1560.0000000000 -0.0033333333 -0.0016666667 0.0104000000
731 2 0.0008000000 1560.0000000000 -0.0033333333 -0.0013333333 0.0104000000
732 2 0.0008000000 1560.0000000000 -0.0033333333 -0.0010000000 0.0104000000
733 2 0.0008000000 1560.0000000000 -0.0033333333 -0.0006666667 0.0104000000
734 2 0.0008000000 1560.0000000000 -0.0033333333 -0.0003333333 0.0104000000
735 2 0.0008000000 1560.0000000000 -0.0033333333 0.0000000000 0.0104000000
736 2 0.0008000000 1560.0000000000 -0.0033333333 0.0003333333 0.0104000000
737 2 0.0008000000 1560.0000000000 -0.0033333333 0.0006666667 0.0104000000
738 2 0.0008000000 1560.0000000000 -0.0033333333 0.0010000000 0.0104000000
739 2 0.0008000000 1560.0000000000 -0.0033333333 0.0013333333 0.0104000000
740 2 0.0008000000 1560.0000000000 -0.0033333333 0.0016666667 0.0104000000
741 2 0.0008000000 1560.0000000000 -0.0033333333 0.0020000000 0.0104000000
742 2 0.0008000000 1560.0000000000 -0.0033333333 0.0023333333 0.0104000000
743 2 0.0008000000 1560.0000000000 -0.0033333333 0.0026666667 0.0104000000
744 2 0.0008000000 1560.0000000000 -0.0033333333 0.0030000000 0.0104000000
745 2 0.0008000000 1560.0000000000 -0.0033333333 0.0033333333 0.0104000000
746 2 0.0008000000 1560.0000000000 -0.0033333333 0.0036492693 0.0104000000
747 2 0.0008000000 1560.0000000000 -0.0030000000 -0.0036492693 0.0104000000
748 2 0.0008000000 1560.0000000000 -0.0030000000 -0.0033333333 0.0104000000
749 2 0.0008000000 1560.0000000000 -0.0030000000 -0.0030000000 0.0104000000
750 2 0.0008000000 1560.0000000000 -0.0030000000 -0.0026666667 0.0104000000
751 2 0.0008000000 1560.0000000000 -0.0030000000 -0.0023333333 0.0104000000
752 2 0.0008000000 1560.0000000000 -0.0030000000 -0.0020000000 0.0104000000
753 2 0.0008000000 1560.0000000000 -0.0030000000 -0.0016666667 0.0104000000
754 2 0.0008000000 1560.0000000000 -0.0030000000 -0.0013333333 0.0104000000
755 2 0.0008000000 1560.0000000000 -0.0030000000 -0.0010000000 0.0104000000
756 2 0.0008000000 1560.0000000000 -0.0030000000 -0.0006666667 0.0104000000
757 2 0.0008000000 1560.0000000000 -0.0030000000 -0.0003333333 0.0104000000
758 2 0.0008000000 1560.0000000000 -0.0030000000 0.0000000000 0.0104000000
759 2 0.0008000000 1560.0000000000 -0.0030000000 0.0003333333 0.0104000000
760 2 0.0008000000 1560.0000000000 -0.0030000000 0.0006666667 0.0104000000
761 2 0.0008000000 1560.0000000000 -0.0030000000 0.0010000000 0.0104000000
762 2 0.0008000000 1560.0000000000 -0.0030000000 0.0013333333 0.0104000000
763 2 0.0008000000 1560.0000000000 -0.0030000000 0.0016666667 0.0104000000
764 2 0.0008000000 1560.0000000000 -0.0030000000 0.0020000000 0.0104000000
765 2 0.0008000000 1560.0000000000 -0.0030000000 0.0023333333 0.0104000000
766 2 0.0008000000 1560.0000000000 -0.0030000000 0.0026666667 0.0104000000
767 2 0.0008000000 1560.0000000000 -0.0030000000 0.0030000000 0.0104000000
768 2 0.0008000000 1560.0000000000 -0.0030000000 0.0033333333 0.0104000000
769 2 0.0008000000 1560.0000000000 -0.0030000000 0.0036492693 0.0104000000
770 2 0.0008000000 1560.0000000000 -0.0026666667 -0.0036492693 0.0104000000
771 2 0.0008000000 1560.0000000000 -0.0026666667 -0.0033333333 0.0104000000
772 2 0.0008000000 1560.0000000000 -0.0026666667 -0.0030000000 0.0104000000
773 2 0.0008000000 1560.0000000000 -0.0026666667 -0.0026666667 0.0104000000
774 2 0.0008000000 1560.0000000000 -0.0026666667 -0.0023333333 0.0104000000
775 2 0.0008000000 1560.0000000000 -0.0026666667 -0.0020000000 0.0104000000
776 2 0.0008000000 1560.0000000000 -0.0026666667 -0.0016666667 0.0104000000
777 2 0.0008000000 1560.0000000000 -0.0026666667 -0.0013333333 0.0104000000
778 2 0.0008000000 1560.0000000000 -0.0026666667 -0.0010000000 0.0104000000
779 2 0.0008000000 1560.0000000000 -0.0026666667 -0.0006666667 0.0104000000
780 2 0.0008000000 1560.0000000000 -0.0026666667 -0.0003333333 0.0104000000
781 2 0.0008000000 1560.0000000000 -0.0026666667 0.0000000000 0.0104000000
782 2 0.0008000000 1560.0000000000 -0.0026666667 0.0003333333 0.0104000000
783 2 0.0008000000 1560.0000000000 -0.0026666667 0.0006666667 0.0104000000
784 2 0.0008000000 1560.0000000000 -0.0026666667 0.0010000000 0.0104000000
785 2 0.0008000000 1560.0000000000 -0.0026666667 0.0013333333 0.0104000000
786 2 0.0008000000 1560.0000000000 -0.0026666667 0.0016666667 0.0104000000
787 2 0.0008000000 1560.0000000000 -0.0026666667 0.0020000000 0.0104000000
788 2 0.0008000000 1560.0000000000 -0.0026666667 0.0023333333 0.0104000000
789 2 0.0008000000 1560.0000000000 -0.0026666667 0.0026666667 0.0104000000
790 2 0.0008000000 1560.0000000000 -0.0026666667 0.0030000000 0.0104000000
791 2 0.0008000000 1560.0000000000 -0.0026666667 0.0033333333 0.0104000000
792 2 0.0008000000 1560.0000000000 -0.0026666667 0.0036492693 0.0104000000
793 2 0.0008000000 1560.0000000000 -0.0023333333 -0.0036492693 0.0104000000
794 2 0.0008000000 1560.0000000000 -0.0023333333 -0.0033333333 0.0104000000
795 2 0.0008000000 1560.0000000000 -0.0023333333 -0.0030000000 0.0104000000
796 2 0.0008000000 1560.0000000000 -0.0023333333 -0.0026666667 0.0104000000
797 2 0.0008000000 1560.0000000000 -0.0023333333 -0.0023333333 0.0104000000
798 2 0.0008000000 1560.0000000000 -0.0023333333 -0.0020000000 0.0104000000
799 2 0.0008000000 1560.0000000000 -0.0023333333 -0.0016666667 0.0104000000
800 2 0.0008000000 1560.0000000000 -0.0023333333 -0.0013333333 0.0104000000
801 2 0.0008000000 1560.0000000000 -0.0023333333 -0.0010000000 0.0104000000
802 2 0.0008000000 1560.0000000000 -0.0023333333 -0.0006666667 0.0104000000
803 2 0.0008000000 1560.0000000000 -0.0023333333 -0.0003333333 0.0104000000
804 2 0.0008000000 1560.0000000000 -0.0023333333 0.0000000000 0.0104000000
805 2 0.0008000000 1560.0000000000 -0.0023333333 0.0003333333 0.0104000000
806 2 0.0008000000 1560.0000000000 -0.0023333333 0.0006666667 0.0104000000
807 2 0.0008000000 1560.0000000000 -0.0023333333 0.0010000000 0.0104000000
808 2 0.0008000000 1560.0000000000 -0.0023333333 0.0013333333 0.0104000000
809 2 0.0008000000 1560.0000000000 -0.0023333333 0.0016666667 0.0104000000
810 2 0.0008000000 1560.0000000000 -0.0023333333 0.0020000000 0.0104000000
811 2 0.0008000000 1560.0000000000 -0.0023333333 0.0023333333 0.0104000000
812 2 0.0008000000 1560.0000000000 -0.0023333333 0.0026666667 0.0104000000
813 2 0.0008000000 1560.0000000000 -0.0023333333 0.0030000000 0.0104000000
814 2 0.0008000000 1560.0000000000 -0.0023333333 0.0033333333 0.0104000000
815 2 0.0008000000 1560.0000000000 -0.0023333333 0.0036492693 0.0104000000
816 2 0.0008000000 1560.0000000000 -0.0020000000 -0.0036492693 0.0104000000
817 2 0.0008000000 1560.0000000000 -0.0020000000 -0.0033333333 0.0104000000
818 2 0.0008000000 1560.0000000000 -0.0020000000 -0.0030000000 0.0104000000
819 2 0.0008000000 1560.0000000000 -0.0020000000 -0.0026666667 0.0104000000
820 2 0.0008000000 1560.0000000000 -0.0020000000 -0.0023333333 0.0104000000
821 2 0.0008000000 1560.0000000000 -0.0020000000 -0.0020000000 0.0104000000
822 2 0.0008000000 1560.0000000000 -0.0020000000 -0.0016666667 0.0104000000
823 2 0.0008000000 1560.0000000000 -0.0020000000 -0.0013333333 0.0104000000
824 2 0.0008000000 1560.0000000000 -0.0020000000 -0.0010000000 0.0104000000
825 2 0.0008000000 1560.0000000000 -0.0020000000 -0.0006666667 0.0104000000
826 2 0.0008000000 1560.0000000000 -0.0020000000 -0.0003333333 0.0104000000
827 2 0.0008000000 1560.0000000000 -0.0020000000 0.0000000000 0.0104000000
828 2 0.0008000000 1560.0000000000 -0.0020000000 0.0003333333 0.0104000000
829 2 0.0008000000 1560.0000000000 -0.0020000000 0.0006666667 0.0104000000
830 2 0.0008000000 1560.0000000000 -0.0020000000 0.0010000000 0.0104000000
831 2 0.0008000000 1560.0000000000 -0.0020000000 0.0013333333 0.0104000000
832 2 0.0008000000 1560.0000000000 -0.0020000000 0.0016666667 0.0104000000
833 2 0.0008000000 1560.0000000000 -0.0020000000 0.0020000000 0.0104000000
834 2 0.0008000000 1560.0000000000 -0.0020000000 0.0023333333 0.0104000000
835 2 0.0008000000 1560.0000000000 -0.0020000000 0.0026666667 0.0104000000
836 2 0.0008000000 1560.0000000000 -0.0020000000 0.0030000000 0.0104000000
837 2 0.0008000000 1560.0000000000 -0.0020000000 0.0033333333 0.0104000000
838 2 0.0008000000 1560.0000000000 -0.0020000000 0.0036492693 0.0104000000
839 2 0.0008000000 1560.0000000000 -0.0016666667 -0.0036492693 0.0104000000
840 2 0.0008000000 1560.0000000000 -0.0016666667 -0.0033333333 0.0104000000
841 2 0.0008000000 1560.0000000000 -0.0016666667 -0.0030000000 0.0104000000
842 2 0.0008000000 1560.0000000000 -0.0016666667 -0.0026666667 0.0104000000
843 2 0.0008000000 1560.0000000000 -0.0016666667 -0.0023333333 0.0104000000
844 2 0.0008000000 1560.0000000000 -0.0016666667 -0.0020000000 0.0104000000
845 2 0.0008000000 1560.0000000000 -0.0016666667 -0.0016666667 0.0104000000
846 2 0.0008000000 1560.0000000000 -0.0016666667 -0.0013333333 0.0104000000
847 2 0.0008000000 1560.0000000000 -0.0016666667 -0.0010000000 0.0104000000
848 2 0.0008000000 1560.0000000000 -0.0016666667 -0.0006666667 0.0104000000
849 2 0.0008000000 1560.0000000000 -0.0016666667 -0.0003333333 0.0104000000
850 2 0.0008000000 1560.0000000000 -0.0016666667 0.0000000000 0.0104000000
851 2 0.0008000000 1560.0000000000 -0.0016666667 0.0003333333 0.0104000000
852 2 0.0008000000 1560.0000000000 -0.0016666667 0.0006666667 0.0104000000
853 2 0.0008000000 1560.0000000000 -0.0016666667 0.0010000000 0.0104000000
854 2 0.0008000000 1560.0000000000 -0.0016666667 0.0013333333 0.0104000000
855 2 0.0008000000 1560.0000000000 -0.0016666667 0.0016666667 0.0104000000
856 2 0.0008000000 1560.0000000000 -0.0016666667 0.0020000000 0.0104000000
857 2 0.0008000000 1560.0000000000 -0.0016666667 0.0023333333 0.0104000000
858 2 0.0008000000 1560.0000000000 -0.0016666667 0.0026666667 0.0104000000
859 2 0.0008000000 1560.0000000000 -0.0016666667 0.0030000000 0.0104000000
860 2 0.0008000000 1560.0000000000 -0.0016666667 0.0033333333 0.0104000000
861 2 0.0008000000 1560.0000000000 -0.0016666667 0.0036492693 0.0104000000
862 2 0.0008000000 1560.0000000000 -0.0013333333 -0.0036492693 0.0104000000
863 2 0.0008000000 1560.0000000000 -0.0013333333 -0.0033333333 0.0104000000
864 2 0.0008000000 1560.0000000000 -0.0013333333 -0.0030000000 0.0104000000
865 2 0.0008000000 1560.0000000000 -0.0013333333 -0.0026666667 0.0104000000
866 2 0.0008000000 1560.0000000000 -0.0013333333 -0.0023333333 0.0104000000
867 2 0.0008000000 1560.0000000000 -0.0013333333 -0.0020000000 0.0104000000
868 2 0.0008000000 1560.0000000000 -0.0013333333 -0.0016666667 0.0104000000
869 2 0.0008000000 1560.0000000000 -0.0013333333 -0.0013333333 0.0104000000
870 2 0.0008000000 1560.0000000000 -0.0013333333 -0.0010000000 0.0104000000
871 2 0.0008000000 1560.0000000000 -0.0013333333 -0.0006666667 0.0104000000
872 2 0.0008000000 1560.0000000000 -0.0013333333 -0.0003333333 0.0104000000
873 2 0.0008000000 1560.0000000000 -0.0013333333 0.0000000000 0.0104000000
874 2 0.0008000000 1560.0000000000 -0.0013333333 0.0003333333 0.0104000000
875 2 0.0008000000 1560.0000000000 -0.0013333333 0.0006666667 0.0104000000
876 2 0.0008000000 1560.0000000000 -0.0013333333 0.0010000000 0.0104000000
877 2 0.0008000000 1560.0000000000 -0.0013333333 0.0013333333 0.0104000000
878 2 0.0008000000 1560.0000000000 -0.0013333333 0.0016666667 0.0104000000
879 2 0.0008000000 1560.0000000000 -0.0013333333 0.0020000000 0.0104000000
880 2 0.0008000000 1560.0000000000 -0.0013333333 0.0023333333 0.0104000000
881 2 0.0008000000 1560.0000000000 -0.0013333333 0.0026666667 0.0104000000
882 2 0.0008000000 1560.0000000000 -0.0013333333 0.0030000000 0.0104000000
883 2 0.0008000000 1560.0000000000 -0.0013333333 0.0033333333 0.0104000000
884 2 0.0008000000 1560.0000000000 -0.0013333333 0.0036492693 0.0104000000
885 2 0.0008000000 1560.0000000000 -0.0010000000 -0.0036492693 0.0104000000
886 2 0.0008000000 1560.0000000000 -0.0010000000 -0.0033333333 0.0104000000
887 2 0.0008000000 1560.0000000000 -0.0010000000 -0.0030000000 0.0104000000
888 2 0.0008000000 1560.0000000000 -0.0010000000 -0.0026666667 0.0104000000
889 2 0.0008000000 1560.0000000000 -0.0010000000 -0.0023333333 0.0104000000
890 2 0.0008000000 1560.0000000000 -0.0010000000 -0.0020000000 0.0104000000
891 2 0.0008000000 1560.0000000000 -0.0010000000 -0.0016666667 0.0104000000
892 2 0.0008000000 1560.0000000000 -0.0010000000 -0.0013333333 0.0104000000
893 2 0.0008000000 1560.0000000000 -0.0010000000 -0.0010000000 0.0104000000
894 2 0.0008000000 1560.0000000000 -0.0010000000 -0.0006666667 0.0104000000
895 2 0.0008000000 1560.0000000000 -0.0010000000 -0.0003333333 0.0104000000
896 2 0.0008000000 1560.0000000000 -0.0010000000 0.0000000000 0.0104000000
897 2 0.0008000000 1560.0000000000 -0.0010000000 0.0003333333 0.0104000000
898 2 0.0008000000 1560.0000000000 -0.0010000000 0.0006666667 0.0104000000
899 2 0.0008000000 1560.0000000000 -0.0010000000 0.0010000000 0.0104000000
900 2 0.0008000000 1560.0000000000 -0.0010000000 0.0013333333 0.0104000000
901 2 0.0008000000 1560.0000000000 -0.0010000000 0.0016666667 0.0104000000
902 2 0.0008000000 1560.0000000000 -0.0010000000 0.0020000000 0.0104000000
903 2 0.0008000000 1560.0000000000 -0.0010000000 0.0023333333 0.0104000000
904 2 0.0008000000 1560.0000000000 -0.0010000000 0.0026666667 0.0104000000
905 2 0.0008000000 1560.0000000000 -0.0010000000 0.0030000000 0.0104000000
906 2 0.0008000000 1560.0000000000 -0.0010000000 0.0033333333 0.0104000000
907 2 0.0008000000 1560.0000000000 -0.0010000000 0.0036492693 0.0104000000
908 2 0.0008000000 1560.0000000000 -0.0006666667 -0.0036492693 0.0104000000
909 2 0.0008000000 1560.0000000000 -0.0006666667 -0.0033333333 0.0104000000
910 2 0.0008000000 1560.0000000000 -0.0006666667 -0.0030000000 0.0104000000
911 2 0.0008000000 1560.0000000000 -0.0006666667 -0.0026666667 0.0104000000
912 2 0.0008000000 1560.0000000000 -0.0006666667 -0.0023333333 0.0104000000
913 2 0.0008000000 1560.0000000000 -0.0006666667 -0.0020000000 0.0104000000
914 2 0.0008000000 1560.0000000000 -0.0006666667 -0.0016666667 0.0104000000
915 2 0.0008000000 1560.0000000000 -0.0006666667 -0.0013333333 0.0104000000
916 2 0.0008000000 1560.0000000000 -0.0006666667 -0.0010000000 0.0104000000
917 2 0.0008000000 1560.0000000000 -0.0006666667 -0.0006666667 0.0104000000
918 2 0.0008000000 1560.0000000000 -0.0006666667 -0.0003333333 0.0104000000
919 2 0.0008000000 1560.0000000000 -0.0006666667 0.0000000000 0.0104000000
920 2 0.0008000000 1560.0000000000 -0.0006666667 0.0003333333 0.0104000000
921 2 0.0008000000 1560.0000000000 -0.0006666667 0.0006666667 0.0104000000
922 2 0.0008000000 1560.0000000000 -0.0006666667 0.0010000000 0.0104000000
923 2 0.0008000000 1560.0000000000 -0.0006666667 0.0013333333 0.0104000000
924 2 0.0008000000 1560.0000000000 -0.0006666667 0.0016666667 0.0104000000
925 2 0.0008000000 1560.0000000000 -0.0006666667 0.0020000000 0.0104000000
926 2 0.0008000000 1560.0000000000 -0.0006666667 0.0023333333 0.0104000000
927 2 0.0008000000 1560.0000000000 -0.0006666667 0.0026666667 0.0104000000
928 2 0.0008000000 1560.0000000000 -0.0006666667 0.0030000000 0.0104000000
929 2 0.0008000000 1560.0000000000 -0.0006666667 0.0033333333 0.0104000000
930 2 0.0008000000 1560.0000000000 -0.0006666667 0.0036492693 0.0104000000
931 2 0.0008000000 1560.0000000000 -0.0003333333 -0.0036492693 0.0104000000
932 2 0.0008000000 1560.0000000000 -0.0003333333 -0.0033333333 0.0104000000
933 2 0.0008000000 1560.0000000000 -0.0003333333 -0.0030000000 0.0104000000
934 2 0.0008000000 1560.0000000000 -0.0003333333 -0.0026666667 0.0104000000
935 2 0.0008000000 1560.0000000000 -0.0003333333 -0.0023333333 0.0104000000
936 2 0.0008000000 1560.0000000000 -0.0003333333 -0.0020000000 0.0104000000
937 2 0.0008000000 1560.0000000000 -0.0003333333 -0.0016666667 0.0104000000
938 2 0.0008000000 1560.0000000000 -0.0003333333 -0.0013333333 0.0104000000
939 2 0.0008000000 1560.0000000000 -0.0003333333 -0.0010000000 0.0104000000
940 2 0.0008000000 1560.0000000000 -0.0003333333 -0.0006666667 0.0104000000
941 2 0.0008000000 1560.0000000000 -0.0003333333 -0.0003333333 0.0104000000
942 2 0.0008000000 1560.0000000000 -0.0003333333 0.0000000000 0.0104000000
943 2 0.0008000000 1560.0000000000 -0.0003333333 0.0003333333 0.0104000000
944 2 0.0008000000 1560.0000000000 -0.0003333333 0.0006666667 0.0104000000
945 2 0.0008000000 1560.0000000000 -0.0003333333 0.0010000000 0.0104000000
946 2 0.0008000000 1560.0000000000 -0.0003333333 0.0013333333 0.0104000000
947 2 0.0008000000 1560.0000000000 -0.0003333333 0.0016666667 0.0104000000
948 2 0.0008000000 1560.0000000000 -0.0003333333 0.0020000000 0.0104000000
949 2 0.0008000000 1560.0000000000 -0.0003333333 0.0023333333 0.0104000000
950 2 0.0008000000 1560.0000000000 -0.0003333333 0.0026666667 0.0104000000
951 2 0.0008000000 1560.0000000000 -0.0003333333 0.0030000000 0.0104000000
952 2 0.0008000000 1560.0000000000 -0.0003333333 0.0033333333 0.0104000000
953 2 0.0008000000 1560.0000000000 -0.0003333333 0.0036492693 0.0104000000
954 2 0.0008000000 1560.0000000000 0.0000000000 -0.0036492693 0.0104000000
955 2 0.0008000000 1560.0000000000 0.0000000000 -0.0033333333 0.0104000000
956 2 0.0008000000 1560.0000000000 0.0000000000 -0.0030000000 0.0104000000
957 2 0.0008000000 1560.0000000000 0.0000000000 -0.0026666667 0.0104000000
958 2 0.0008000000 1560.0000000000 0.0000000000 -0.0023333333 0.0104000000
959 2 0.0008000000 1560.0000000000 0.0000000000 -0.0020000000 0.0104000000
960 2 0.0008000000 1560.0000000000 0.0000000000 -0.0016666667 0.0104000000
961 2 0.0008000000 1560.0000000000 0.0000000000 -0.0013333333 0.0104000000
962 2 0.0008000000 1560.0000000000 0.0000000000 -0.0010000000 0.0104000000
963 2 0.0008000000 1560.0000000000 0.0000000000 -0.0006666667 0.0104000000
964 2 0.0008000000 1560.0000000000 0.0000000000 -0.0003333333 0.0104000000
965 2 0.0008000000 1560.0000000000 0.0000000000 0.0000000000 0.0104000000
966 2 0.0008000000 1560.0000000000 0.0000000000 0.0003333333 0.0104000000
967 2 0.0008000000 1560.0000000000 0.0000000000 0.0006666667 0.0104000000
968 2 0.0008000000 1560.0000000000 0.0000000000 0.0010000000 0.0104000000
969 2 0.0008000000 1560.0000000000 0.0000000000 0.0013333333 0.0104000000
970 2 0.0008000000 1560.0000000000 0.0000000000 0.0016666667 0.0104000000
971 2 0.0008000000 1560.0000000000 0.0000000000 0.0020000000 0.0104000000
972 2 0.0008000000 1560.0000000000 0.0000000000 0.0023333333 0.0104000000
973 2 0.0008000000 1560.0000000000 0.0000000000 0.0026666667 0.0104000000
974 2 0.0008000000 1560.0000000000 0.0000000000 0.0030000000 0.0104000000
975 2 0.0008000000 1560.0000000000 0.0000000000 0.0033333333 0.0104000000
976 2 0.0008000000 1560.0000000000 0.0000000000 0.0036492693 0.0104000000
977 2 0.0008000000 1560.0000000000 0.0003333333 -0.0036492693 0.0104000000
978 2 0.0008000000 1560.0000000000 0.0003333333 -0.0033333333 0.0104000000
979 2 0.0008000000 1560.0000000000 0.0003333333 -0.0030000000 0.0104000000
980 2 0.0008000000 1560.0000000000 0.0003333333 -0.0026666667 0.0104000000
981 2 0.0008000000 1560.0000000000 0.0003333333 -0.0023333333 0.0104000000
982 2 0.0008000000 1560.0000000000 0.0003333333 -0.0020000000 0.0104000000
983 2 0.0008000000 1560.0000000000 0.0003333333 -0.0016666667 0.0104000000
984 2 0.0008000000 1560.0000000000 0.0003333333 -0.0013333333 0.0104000000
985 2 0.0008000000 1560.0000000000 0.0003333333 -0.0010000000 0.0104000000
986 2 0.0008000000 1560.0000000000 0.0003333333 -0.0006666667 0.0104000000
987 2 0.0008000000 1560.0000000000 0.0003333333 -0.0003333333 0.0104000000
988 2 0.0008000000 1560.0000000000 0.0003333333 0.0000000000 0.0104000000
989 2 0.0008000000 1560.0000000000 0.0003333333 0.0003333333 0.0104000000
990 2 0.0008000000 1560.0000000000 0.0003333333 0.0006666667 0.0104000000
991 2 0.0008000000 1560.0000000000 0.0003333333 0.0010000000 0.0104000000
992 2 0.0008000000 1560.0000000000 0.0003333333 0.0013333333 0.0104000000
993 2 0.0008000000 1560.0000000000 0.0003333333 0.0016666667 0.0104000000
994 2 0.0008000000 1560.0000000000 0.0003333333 0.0020000000 0.0104000000
995 2 0.0008000000 1560.0000000000 0.0003333333 0.0023333333 0.0104000000
996 2 0.0008000000 1560.0000000000 0.0003333333 0.0026666667 0.0104000000
997 2 0.0008000000 1560.0000000000 0.0003333333 0.0030000000 0.0104000000
998 2 0.0008000000 1560.0000000000 0.0003333333 0.0033333333 0.0104000000
999 2 0.0008000000 1560.0000000000 0.0003333333 0.0036492693 0.0104000000
1000 2 0.0008000000 1560.0000000000 0.0006666667 -0.0036492693 0.0104000000
1001 2 0.0008000000 1560.0000000000 0.0006666667 -0.0033333333 0.0104000000
1002 2 0.0008000000 1560.0000000000 0.0006666667 -0.0030000000 0.0104000000
1003 2 0.0008000000 1560.0000000000 0.0006666667 -0.0026666667 0.0104000000
1004 2 0.0008000000 1560.0000000000 0.0006666667 -0.0023333333 0.0104000000
1005 2 0.0008000000 1560.0000000000 0.0006666667 -0.0020000000 0.0104000000
1006 2 0.0008000000 1560.0000000000 0.0006666667 -0.0016666667 0.0104000000
1007 2 0.0008000000 1560.0000000000 0.0006666667 -0.0013333333 0.0104000000
1008 2 0.0008000000 1560.0000000000 0.0006666667 -0.0010000000 0.0104000000
1009 2 0.0008000000 1560.0000000000 0.0006666667 -0.0006666667 0.0104000000
1010 2 0.0008000000 1560.0000000000 0.0006666667 -0.0003333333 0.0104000000
1011 2 0.0008000000 1560.0000000000 0.0006666667 0.0000000000 0.0104000000
1012 2 0.0008000000 1560.0000000000 0.0006666667 0.0003333333 0.0104000000
1013 2 0.0008000000 1560.0000000000 0.0006666667 0.0006666667 0.0104000000
1014 2 0.0008000000 1560.0000000000 0.0006666667 0.0010000000 0.0104000000
1015 2 0.0008000000 1560.0000000000 0.0006666667 0.0013333333 0.0104000000
1016 2 0.0008000000 1560.0000000000 0.0006666667 0.0016666667 0.0104000000
1017 2 0.0008000000 1560.0000000000 0.0006666667 0.0020000000 0.0104000000
1018 2 0.0008000000 1560.0000000000 0.0006666667 0.0023333333 0.0104000000
1019 2 0.0008000000 1560.0000000000 0.0006666667 0.0026666667 0.0104000000
1020 2 0.0008000000 1560.0000000000 0.0006666667 0.0030000000 0.0104000000
1021 2 0.0008000000 1560.0000000000 0.0006666667 0.0033333333 0.0104000000
1022 2 0.0008000000 1560.0000000000 0.0006666667 0.0036492693 0.0104000000
1023 2 0.0008000000 1560.0000000000 0.0010000000 -0.0036492693 0.0104000000
1024 2 0.0008000000 1560.0000000000 0.0010000000 -0.0033333333 0.0104000000
1025 2 0.0008000000 1560.0000000000 0.0010000000 -0.0030000000 0.0104000000
1026 2 0.0008000000 1560.0000000000 0.0010000000 -0.0026666667 0.0104000000
1027 2 0.0008000000 1560.0000000000 0.0010000000 -0.0023333333 0.0104000000
1028 2 0.0008000000 1560.0000000000 0.0010000000 -0.0020000000 0.0104000000
1029 2 0.0008000000 1560.0000000000 0.0010000000 -0.0016666667 0.0104000000
1030 2 0.0008000000 1560.0000000000 0.0010000000 -0.0013333333 0.0104000000
1031 2 0.0008000000 1560.0000000000 0.0010000000 -0.0010000000 0.0104000000
1032 2 0.0008000000 1560.0000000000 0.0010000000 -0.0006666667 0.0104000000
1033 2 0.0008000000 1560.0000000000 0.0010000000 -0.0003333333 0.0104000000
1034 2 0.0008000000 1560.0000000000 0.0010000000 0.0000000000 0.0104000000
1035 2 0.0008000000 1560.0000000000 0.0010000000 0.0003333333 0.0104000000
1036 2 0.0008000000 1560.0000000000 0.0010000000 0.0006666667 0.0104000000
1037 2 0.0008000000 1560.0000000000 0.0010000000 0.0010000000 0.0104000000
1038 2 0.0008000000 1560.0000000000 0.0010000000 0.0013333333 0.0104000000
1039 2 0.0008000000 1560.0000000000 0.0010000000 0.0016666667 0.0104000000
1040 2 0.0008000000 1560.0000000000 0.0010000000 0.0020000000 0.0104000000
1041 2 0.0008000000 1560.0000000000 0.0010000000 0.0023333333 0.0104000000
1042 2 0.0008000000 1560.0000000000 0.0010000000 0.0026666667 0.0104000000
1043 2 0.0008000000 1560.0000000000 0.0010000000 0.0030000000 0.0104000000
1044 2 0.0008000000 1560.0000000000 0.0010000000 0.0033333333 0.0104000000
1045 2 0.0008000000 1560.0000000000 0.0010000000 0.0036492693 0.0104000000
1046 2 0.0008000000 1560.0000000000 0.0013333333 -0.0036492693 0.0104000000
1047 2 0.0008000000 1560.0000000000 0.0013333333 -0.0033333333 0.0104000000
1048 2 0.0008000000 1560.0000000000 0.0013333333 -0.0030000000 0.0104000000
1049 2 0.0008000000 1560.0000000000 0.0013333333 -0.0026666667 0.0104000000
1050 2 0.0008000000 1560.0000000000 0.0013333333 -0.0023333333 0.0104000000
1051 2 0.0008000000 1560.0000000000 0.0013333333 -0.0020000000 0.0104000000
1052 2 0.0008000000 1560.0000000000 0.0013333333 -0.0016666667 0.0104000000
1053 2 0.0008000000 1560.0000000000 0.0013333333 -0.0013333333 0.0104000000
1054 2 0.0008000000 1560.0000000000 0.0013333333 -0.0010000000 0.0104000000
1055 2 0.0008000000 1560.0000000000 0.0013333333 -0.0006666667 0.0104000000
1056 2 0.0008000000 1560.0000000000 0.0013333333 -0.0003333333 0.0104000000
1057 2 0.0008000000 1560.0000000000 0.0013333333 0.0000000000 0.0104000000
1058 2 0.0008000000 1560.0000000000 0.0013333333 0.0003333333 0.0104000000
1059 2 0.0008000000 1560.0000000000 0.0013333333 0.0006666667 0.0104000000
1060 2 0.0008000000 1560.0000000000 0.0013333333 0.0010000000 0.0104000000
1061 2 0.0008000000 1560.0000000000 0.0013333333 0.0013333333 0.0104000000
1062 2 0.0008000000 1560.0000000000 0.0013333333 0.0016666667 0.0104000000
1063 2 0.0008000000 1560.0000000000 0.0013333333 0.0020000000 0.0104000000
1064 2 0.0008000000 1560.0000000000 0.0013333333 0.0023333333 0.0104000000
1065 2 0.0008000000 1560.0000000000 0.0013333333 0.0026666667 0.0104000000
1066 2 0.0008000000 1560.0000000000 0.0013333333 0.0030000000 0.0104000000
1067 2 0.0008000000 1560.0000000000 0.0013333333 0.0033333333 0.0104000000
1068 2 0.0008000000 1560.0000000000 0.0013333333 0.0036492693 0.0104000000
1069 2 0.0008000000 1560.0000000000 0.0016666667 -0.0036492693 0.0104000000
1070 2 0.0008000000 1560.0000000000 0.0016666667 -0.0033333333 0.0104000000
1071 2 0.0008000000 1560.0000000000 0.0016666667 -0.0030000000 0.0104000000
1072 2 0.0008000000 1560.0000000000 0.0016666667 -0.0026666667 0.0104000000
1073 2 0.0008000000 1560.0000000000 0.0016666667 -0.0023333333 0.0104000000
1074 2 0.0008000000 1560.0000000000 0.0016666667 -0.0020000000 0.0104000000
1075 2 0.0008000000 1560.0000000000 0.0016666667 -0.0016666667 0.0104000000
1076 2 0.0008000000 1560.0000000000 0.0016666667 -0.0013333333 0.0104000000
1077 2 0.0008000000 1560.0000000000 0.0016666667 -0.0010000000 0.0104000000
1078 2 0.0008000000 1560.0000000000 0.0016666667 -0.0006666667 0.0104000000
1079 2 0.0008000000 1560.0000000000 0.0016666667 -0.0003333333 0.0104000000
1080 2 0.0008000000 1560.0000000000 0.0016666667 0.0000000000 0.0104000000
1081 2 0.0008000000 1560.0000000000 0.0016666667 0.0003333333 0.0104000000
1082 2 0.0008000000 1560.0000000000 0.0016666667 0.0006666667 0.0104000000
1083 2 0.0008000000 1560.0000000000 0.0016666667 0.0010000000 0.0104000000
1084 2 0.0008000000 1560.0000000000 0.0016666667 0.0013333333 0.0104000000
1085 2 0.0008000000 1560.0000000000 0.0016666667 0.0016666667 0.0104000000
1086 2 0.0008000000 1560.0000000000 0.0016666667 0.0020000000 0.0104000000
1087 2 0.0008000000 1560.0000000000 0.0016666667 0.0023333333 0.0104000000
1088 2 0.0008000000 1560.0000000000 0.0016666667 0.0026666667 0.0104000000
1089 2 0.0008000000 1560.0000000000 0.0016666667 0.0030000000 0.0104000000
1090 2 0.0008000000 1560.0000000000 0.0016666667 0.0033333333 0.0104000000
1091 2 0.0008000000 1560.0000000000 0.0016666667 0.0036492693 0.0104000000
1092 2 0.0008000000 1560.0000000000 0.0020000000 -0.0036492693 0.0104000000
1093 2 0.0008000000 1560.0000000000 0.0020000000 -0.0033333333 0.0104000000
1094 2 0.0008000000 1560.0000000000 0.0020000000 -0.0030000000 0.0104000000
1095 2 0.0008000000 1560.0000000000 0.0020000000 -0.0026666667 0.0104000000