#LAMMPS data file created by matlab.
400 atoms

1 atom types

-0.005000 0.005000 xlo xhi
-0.005000 0.005000 ylo yhi
0.000000 0.020000 zlo zhi

Atoms

1 1 0.000941 1560.000000 0.000528 -0.001183 0.003278
2 1 0.000897 1560.000000 0.002354 0.000898 0.002752
3 1 0.000854 1560.000000 -0.000315 0.000025 0.009168
4 1 0.000914 1560.000000 0.000370 -0.000402 0.005103
5 1 0.000875 1560.000000 0.003097 0.000674 0.001217
6 1 0.000893 1560.000000 -0.002106 0.002346 0.008312
7 1 0.000876 1560.000000 -0.001356 0.000261 0.005683
8 1 0.000858 1560.000000 0.001689 -0.002040 0.005540
9 1 0.000851 1560.000000 0.002454 0.001296 0.008896
10 1 0.000845 1560.000000 -0.000848 -0.000898 0.008653
11 1 0.000880 1560.000000 0.000468 -0.002806 0.008413
12 1 0.000818 1560.000000 0.002076 -0.000847 0.005544
13 1 0.000856 1560.000000 -0.000229 0.001583 0.004978
14 1 0.000793 1560.000000 0.000350 -0.002233 0.003200
15 1 0.000894 1560.000000 -0.000388 0.000256 0.002698
16 1 0.000975 1560.000000 -0.000467 0.000297 0.001403
17 1 0.000892 1560.000000 0.002591 -0.000314 0.002817
18 1 0.000790 1560.000000 0.001259 -0.000588 0.003828
19 1 0.000900 1560.000000 0.002854 -0.000941 0.000671
20 1 0.000879 1560.000000 -0.001547 0.002432 0.000593
21 1 0.000849 1560.000000 -0.000707 0.000846 0.003354
22 1 0.000852 1560.000000 0.000444 0.000639 0.008757
23 1 0.000872 1560.000000 -0.002235 0.000985 0.001527
24 1 0.000784 1560.000000 0.000249 0.003487 0.000666
25 1 0.000792 1560.000000 0.000007 -0.001055 0.008642
26 1 0.000802 1560.000000 -0.000128 -0.000014 0.003929
27 1 0.000915 1560.000000 0.000199 -0.000705 0.000661
28 1 0.000914 1560.000000 0.002750 -0.000677 0.008201
29 1 0.000834 1560.000000 -0.000147 -0.002609 0.002158
30 1 0.000826 1560.000000 0.000946 -0.000682 0.006144
31 1 0.000905 1560.000000 -0.001086 -0.002625 0.008786
32 1 0.000825 1560.000000 0.000455 -0.000506 0.009141
33 1 0.000854 1560.000000 0.002199 -0.000662 0.001189
34 1 0.000826 1560.000000 -0.001685 -0.001705 0.000904
35 1 0.000857 1560.000000 0.000410 -0.002135 0.004260
36 1 0.000825 1560.000000 -0.001265 0.000498 0.004738
37 1 0.000950 1560.000000 0.000127 -0.000049 0.007177
38 1 0.000882 1560.000000 0.000802 0.002178 0.000672
39 1 0.000910 1560.000000 0.001881 -0.002129 0.008704
40 1 0.000847 1560.000000 -0.000504 0.003205 0.004748
41 1 0.000891 1560.000000 0.001061 0.000169 0.004584
42 1 0.000867 1560.000000 -0.000674 -0.001659 0.005036
43 1 0.000811 1560.000000 0.000207 -0.001624 0.005046
44 1 0.000916 1560.000000 -0.002024 -0.000277 0.007847
45 1 0.000899 1560.000000 0.000827 -0.000021 0.002247
46 1 0.000896 1560.000000 -0.002619 -0.000381 0.003890
47 1 0.000926 1560.000000 -0.001549 0.000887 0.008691
48 1 0.000855 1560.000000 0.001063 -0.002727 0.006654
49 1 0.000911 1560.000000 0.000284 -0.002059 0.007180
50 1 0.000836 1560.000000 -0.001354 0.002368 0.004336
51 1 0.000901 1560.000000 0.001694 0.000670 0.008496
52 1 0.000882 1560.000000 -0.002843 0.000102 0.001456
53 1 0.000859 1560.000000 0.000553 0.003080 0.009084
54 1 0.000816 1560.000000 -0.001178 -0.000280 0.002998
55 1 0.000908 1560.000000 -0.001414 -0.001138 0.003114
56 1 0.000898 1560.000000 0.001577 0.003072 0.001676
57 1 0.000927 1560.000000 0.002493 0.002019 0.005287
58 1 0.000837 1560.000000 0.001169 -0.000412 0.001209
59 1 0.000839 1560.000000 -0.001649 0.000885 0.002864
60 1 0.000969 1560.000000 0.000738 -0.002837 0.001696
61 1 0.000860 1560.000000 -0.002596 -0.000042 0.002468
62 1 0.000923 1560.000000 -0.003243 -0.001083 0.007291
63 1 0.000846 1560.000000 -0.000894 -0.001976 0.007596
64 1 0.000838 1560.000000 -0.002785 0.001751 0.004127
65 1 0.000902 1560.000000 0.002284 -0.001531 0.004411
66 1 0.000876 1560.000000 -0.001281 0.002059 0.007752
67 1 0.000923 1560.000000 0.001289 0.001332 0.009299
68 1 0.000839 1560.000000 0.000613 0.002439 0.004362
69 1 0.000916 1560.000000 -0.001500 0.001040 0.006333
70 1 0.000943 1560.000000 0.001149 0.001301 0.004547
71 1 0.000865 1560.000000 -0.001432 -0.001085 0.005006
72 1 0.000852 1560.000000 0.000448 0.000679 0.005886
73 1 0.000875 1560.000000 -0.001296 0.003063 0.007210
74 1 0.000876 1560.000000 0.000682 0.003077 0.006242
75 1 0.000884 1560.000000 0.001754 -0.002498 0.001193
76 1 0.000867 1560.000000 -0.000806 0.001867 0.000920
77 1 0.000892 1560.000000 -0.003248 0.000015 0.006151
78 1 0.000897 1560.000000 0.003107 0.000249 0.003630
79 1 0.000840 1560.000000 0.000865 -0.001850 0.001544
80 1 0.000875 1560.000000 -0.000836 0.000657 0.006892
81 1 0.000874 1560.000000 0.001443 -0.000741 0.008239
82 1 0.000931 1560.000000 -0.001885 -0.002015 0.003137
83 1 0.000920 1560.000000 -0.002510 0.001988 0.006089
84 1 0.000890 1560.000000 -0.001489 -0.002400 0.001560
85 1 0.000890 1560.000000 0.001486 0.001629 0.006735
86 1 0.000904 1560.000000 0.000035 0.001053 0.000750
87 1 0.000904 1560.000000 0.000686 0.001984 0.001969
88 1 0.000898 1560.000000 -0.002693 -0.001072 0.002527
89 1 0.000900 1560.000000 -0.000233 -0.001121 0.004106
90 1 0.000894 1560.000000 -0.001873 -0.001329 0.007541
91 1 0.000875 1560.000000 0.002081 -0.000237 0.004642
92 1 0.000864 1560.000000 -0.000557 -0.002514 0.005227
93 1 0.000808 1560.000000 -0.000108 0.000588 0.004642
94 1 0.000881 1560.000000 0.002125 0.000831 0.007710
95 1 0.000834 1560.000000 0.001567 0.000593 0.000930
96 1 0.000837 1560.000000 -0.000813 0.003276 0.003198
97 1 0.000805 1560.000000 0.000088 0.001197 0.003749
98 1 0.000885 1560.000000 -0.002189 -0.002278 0.008737
99 1 0.000813 1560.000000 0.001477 0.002811 0.003195
100 1 0.000917 1560.000000 0.000013 0.001422 0.007194
101 1 0.000916 1560.000000 0.001303 -0.002212 0.003151
102 1 0.000977 1560.000000 -0.000446 -0.001739 0.009414
103 1 0.000907 1560.000000 0.000945 0.000633 0.003470
104 1 0.000937 1560.000000 0.000143 0.002226 0.005697
105 1 0.000855 1560.000000 -0.000231 0.002280 0.006513
106 1 0.000861 1560.000000 0.002895 0.000384 0.009024
107 1 0.000982 1560.000000 -0.001815 -0.000990 0.001990
108 1 0.000859 1560.000000 -0.000324 0.000296 0.006068
109 1 0.000922 1560.000000 0.002954 0.001171 0.004264
110 1 0.000963 1560.000000 0.000292 0.000856 0.001802
111 1 0.000853 1560.000000 0.001528 0.002330 0.007996
112 1 0.000911 1560.000000 -0.000529 0.003399 0.009239
113 1 0.000879 1560.000000 -0.000087 -0.001503 0.006529
114 1 0.000866 1560.000000 0.002748 0.000468 0.004857
115 1 0.000869 1560.000000 -0.000090 -0.003170 0.003729
116 1 0.000849 1560.000000 -0.002230 0.001247 0.004747
117 1 0.000919 1560.000000 -0.000978 0.001390 0.004188
118 1 0.000902 1560.000000 -0.003195 0.000954 0.006628
119 1 0.000856 1560.000000 0.000196 -0.002124 0.000634
120 1 0.000935 1560.000000 -0.000361 0.002563 0.002431
121 1 0.000847 1560.000000 -0.000955 -0.002483 0.006739
122 1 0.000883 1560.000000 -0.002821 0.001376 0.009409
123 1 0.000823 1560.000000 -0.000713 -0.001950 0.002976
124 1 0.000871 1560.000000 -0.000612 -0.000418 0.007784
125 1 0.000854 1560.000000 0.001807 0.002122 0.005918
126 1 0.000846 1560.000000 0.001843 -0.002929 0.008291
127 1 0.000865 1560.000000 0.001895 0.000834 0.006439
128 1 0.000879 1560.000000 0.001171 0.000430 0.009246
129 1 0.000930 1560.000000 0.001797 0.002741 0.005271
130 1 0.000833 1560.000000 -0.001264 0.002401 0.005564
131 1 0.000934 1560.000000 0.002221 0.002286 0.004150
132 1 0.000908 1560.000000 0.001442 -0.001714 0.007633
133 1 0.000914 1560.000000 0.002410 0.002327 0.007369
134 1 0.000927 1560.000000 -0.002167 0.002458 0.001542
135 1 0.000878 1560.000000 -0.000937 -0.000837 0.001261
136 1 0.000850 1560.000000 0.000174 -0.003396 0.004993
137 1 0.000931 1560.000000 0.001524 -0.000414 0.002929
138 1 0.000839 1560.000000 0.002585 0.001641 0.003390
139 1 0.000876 1560.000000 0.000145 0.001440 0.009118
140 1 0.000870 1560.000000 0.000938 -0.002945 0.000567
141 1 0.000829 1560.000000 0.001689 -0.000169 0.006202
142 1 0.000883 1560.000000 -0.000222 0.001317 0.002750
143 1 0.000876 1560.000000 -0.001995 -0.000331 0.006713
144 1 0.000911 1560.000000 0.000118 -0.001251 0.002283
145 1 0.000822 1560.000000 -0.002936 -0.001769 0.000910
146 1 0.000898 1560.000000 -0.000708 -0.000715 0.006748
147 1 0.000858 1560.000000 0.002447 -0.001495 0.006546
148 1 0.000883 1560.000000 0.001145 -0.000280 0.007477
149 1 0.000875 1560.000000 -0.002776 -0.000675 0.005590
150 1 0.000914 1560.000000 0.002302 -0.002560 0.006295
151 1 0.000810 1560.000000 0.003253 0.001175 0.005562
152 1 0.000919 1560.000000 -0.002653 0.000269 0.008470
153 1 0.000926 1560.000000 -0.002264 -0.000960 0.001020
154 1 0.000879 1560.000000 -0.002371 -0.002072 0.007736
155 1 0.000872 1560.000000 -0.001237 -0.002798 0.003869
156 1 0.000788 1560.000000 -0.001316 0.001896 0.009296
157 1 0.000893 1560.000000 0.000403 -0.000055 0.003098
158 1 0.000834 1560.000000 0.002834 -0.001246 0.009335
159 1 0.000934 1560.000000 -0.000967 0.003319 0.005719
160 1 0.000877 1560.000000 0.000653 0.000233 0.000514
161 1 0.000942 1560.000000 0.003164 -0.000045 0.007172
162 1 0.000871 1560.000000 0.001334 0.000505 0.005548
163 1 0.000819 1560.000000 -0.001100 -0.001151 0.004191
164 1 0.000886 1560.000000 -0.000907 0.001272 0.001625
165 1 0.000937 1560.000000 0.003087 -0.000952 0.005773
166 1 0.000887 1560.000000 -0.001031 -0.000111 0.003934
167 1 0.000906 1560.000000 0.001736 0.000218 0.001744
168 1 0.000877 1560.000000 -0.001367 -0.002650 0.002726
169 1 0.000879 1560.000000 0.000896 -0.002181 0.008936
170 1 0.000878 1560.000000 0.000336 0.001961 0.008224
171 1 0.000879 1560.000000 0.002803 -0.001311 0.002958
172 1 0.000868 1560.000000 -0.002193 0.001531 0.006846
173 1 0.000904 1560.000000 0.002153 0.002673 0.000491
174 1 0.000896 1560.000000 -0.002383 -0.001727 0.004717
175 1 0.000872 1560.000000 -0.001295 -0.002828 0.007461
176 1 0.000849 1560.000000 0.001073 -0.003235 0.004876
177 1 0.000823 1560.000000 -0.000769 0.000765 0.000596
178 1 0.000935 1560.000000 -0.000015 -0.000458 0.001822
179 1 0.000932 1560.000000 0.001945 -0.002723 0.004252
180 1 0.000804 1560.000000 -0.002643 0.001937 0.005123
181 1 0.000987 1560.000000 0.000126 0.003495 0.007823
182 1 0.000833 1560.000000 0.001184 -0.001215 0.006822
183 1 0.000906 1560.000000 0.003267 0.000514 0.006402
184 1 0.000899 1560.000000 -0.003435 -0.000535 0.002994
185 1 0.000907 1560.000000 0.002187 -0.002604 0.002999
186 1 0.000953 1560.000000 -0.002551 0.001277 0.002819
187 1 0.000941 1560.000000 0.000552 -0.000942 0.007969
188 1 0.000854 1560.000000 -0.002004 -0.001686 0.009413
189 1 0.000904 1560.000000 -0.000655 -0.001909 0.000830
190 1 0.000823 1560.000000 -0.003471 0.000261 0.004201
191 1 0.000893 1560.000000 0.000148 -0.002185 0.005755
192 1 0.000877 1560.000000 -0.000125 -0.000755 0.005884
193 1 0.000861 1560.000000 0.001911 0.001331 0.005360
194 1 0.000869 1560.000000 -0.001830 -0.002095 0.004099
195 1 0.000810 1560.000000 0.000762 0.002285 0.003001
196 1 0.000866 1560.000000 -0.000179 -0.001776 0.008122
197 1 0.000905 1560.000000 0.001118 0.000918 0.007501
198 1 0.000871 1560.000000 -0.001027 0.002724 0.001485
199 1 0.000919 1560.000000 0.002860 0.001590 0.008129
200 1 0.000949 1560.000000 -0.001830 -0.002905 0.005018
201 1 0.000916 1560.000000 -0.000313 0.000418 0.008234
202 1 0.000880 1560.000000 0.001186 -0.001414 0.009318
203 1 0.000970 1560.000000 -0.000676 0.001769 0.008598
204 1 0.000829 1560.000000 0.000256 -0.003005 0.006653
205 1 0.000891 1560.000000 -0.000855 -0.001298 0.005818
206 1 0.000842 1560.000000 -0.002470 0.002255 0.002925
207 1 0.000927 1560.000000 0.001192 -0.001567 0.004514
208 1 0.000897 1560.000000 -0.001717 0.000297 0.000966
209 1 0.000856 1560.000000 -0.002812 -0.000324 0.009321
210 1 0.000841 1560.000000 -0.000693 0.000877 0.009407
211 1 0.000895 1560.000000 -0.001870 -0.000323 0.008754
212 1 0.000924 1560.000000 -0.000801 -0.000933 0.002368
213 1 0.000883 1560.000000 0.002002 0.001733 0.001853
214 1 0.000891 1560.000000 -0.003035 -0.001569 0.009275
215 1 0.000847 1560.000000 -0.002534 -0.001133 0.006639
216 1 0.000846 1560.000000 0.001164 0.002705 0.007142
217 1 0.000841 1560.000000 0.001745 -0.002319 0.006991
218 1 0.000873 1560.000000 -0.002970 0.000272 0.003218
219 1 0.000952 1560.000000 -0.001893 0.000415 0.003664
220 1 0.000845 1560.000000 -0.002702 0.000739 0.004075
221 1 0.000858 1560.000000 0.002728 -0.001746 0.008053
222 1 0.000833 1560.000000 0.001511 -0.001415 0.002226
223 1 0.000821 1560.000000 0.003109 0.001087 0.002339
224 1 0.000916 1560.000000 0.002955 -0.001309 0.001697
225 1 0.000891 1560.000000 0.001806 -0.000768 0.009105
226 1 0.000917 1560.000000 0.000984 -0.003130 0.009186
227 1 0.000894 1560.000000 -0.002754 0.001719 0.008122
228 1 0.000931 1560.000000 -0.003395 0.000693 0.005095
229 1 0.000842 1560.000000 -0.000779 -0.003326 0.001303
230 1 0.000912 1560.000000 0.000935 -0.003004 0.005776
231 1 0.000885 1560.000000 -0.003393 -0.000868 0.008695
232 1 0.000879 1560.000000 -0.002947 0.001135 0.000820
233 1 0.000805 1560.000000 0.000267 0.002538 0.007531
234 1 0.000875 1560.000000 0.001625 0.001440 0.000559
235 1 0.000951 1560.000000 -0.000630 -0.003241 0.006333
236 1 0.000859 1560.000000 0.000665 0.001210 0.002712
237 1 0.000835 1560.000000 0.000609 0.003315 0.001982
238 1 0.000875 1560.000000 -0.001773 -0.002136 0.006567
239 1 0.000888 1560.000000 -0.000915 0.001752 0.002394
240 1 0.000791 1560.000000 0.000685 0.001988 0.006783
241 1 0.000844 1560.000000 -0.000898 -0.001965 0.003823
242 1 0.000884 1560.000000 0.001433 0.001418 0.003590
243 1 0.000751 1560.000000 -0.001330 0.002678 0.002367
244 1 0.000939 1560.000000 -0.001962 0.002895 0.006257
245 1 0.000828 1560.000000 0.000452 0.003476 0.003512
246 1 0.000855 1560.000000 -0.001728 0.003026 0.003920
247 1 0.000911 1560.000000 0.003102 -0.001479 0.007189
248 1 0.000930 1560.000000 0.002543 -0.000461 0.006510
249 1 0.000906 1560.000000 0.000888 -0.002892 0.007618
250 1 0.000835 1560.000000 -0.002323 0.001740 0.000477
251 1 0.000840 1560.000000 -0.003444 0.000541 0.009330
252 1 0.000892 1560.000000 -0.001513 0.000336 0.009450
253 1 0.000883 1560.000000 -0.002884 -0.001684 0.005858
254 1 0.000816 1560.000000 -0.002137 0.000647 0.005604
255 1 0.000898 1560.000000 0.003351 -0.000245 0.005021
256 1 0.000884 1560.000000 -0.000762 -0.000485 0.005061
257 1 0.000858 1560.000000 -0.001579 -0.001402 0.008725
258 1 0.000892 1560.000000 -0.001755 0.001604 0.003751
259 1 0.000897 1560.000000 0.002826 0.001913 0.001061
260 1 0.000878 1560.000000 -0.003136 0.000161 0.007420
261 1 0.000815 1560.000000 0.001271 0.001463 0.001516
262 1 0.000919 1560.000000 -0.001424 0.002799 0.008747
263 1 0.000931 1560.000000 -0.001236 0.001599 0.005109
264 1 0.000906 1560.000000 -0.001451 -0.002934 0.000536
265 1 0.000881 1560.000000 -0.001403 0.002194 0.006618
266 1 0.000919 1560.000000 -0.001448 0.000987 0.007754
267 1 0.000948 1560.000000 0.002769 -0.001709 0.005264
268 1 0.000927 1560.000000 0.002207 0.002332 0.008931
269 1 0.000892 1560.000000 0.003233 -0.000949 0.004271
270 1 0.000954 1560.000000 -0.002059 -0.000241 0.004619
271 1 0.000881 1560.000000 -0.000319 0.002244 0.003338
272 1 0.000857 1560.000000 0.003264 0.000892 0.007330
273 1 0.000805 1560.000000 0.000852 0.001272 0.005434
274 1 0.000931 1560.000000 -0.001549 -0.000676 0.000498
275 1 0.000814 1560.000000 0.003267 0.000777 0.008183
276 1 0.000923 1560.000000 0.002408 0.002463 0.002555
277 1 0.000804 1560.000000 0.000843 0.002058 0.008963
278 1 0.000764 1560.000000 -0.000142 0.002815 0.000798
279 1 0.000884 1560.000000 -0.003165 0.001432 0.001955
280 1 0.000791 1560.000000 0.001014 0.003094 0.008010
281 1 0.000868 1560.000000 0.001706 0.000227 0.003865
282 1 0.000869 1560.000000 -0.002931 -0.001149 0.003427
283 1 0.000859 1560.000000 -0.002260 0.000522 0.006764
284 1 0.000800 1560.000000 -0.002272 -0.002624 0.000836
285 1 0.000787 1560.000000 0.001348 -0.000542 0.005188
286 1 0.000878 1560.000000 -0.002881 -0.000597 0.007976
287 1 0.000839 1560.000000 0.001980 -0.001598 0.001148
288 1 0.000890 1560.000000 -0.003308 0.000951 0.007857
289 1 0.000939 1560.000000 -0.000138 -0.002710 0.009309
290 1 0.000844 1560.000000 -0.003193 0.000159 0.000565
291 1 0.000901 1560.000000 -0.001154 -0.002242 0.005867
292 1 0.000824 1560.000000 0.002641 -0.000397 0.009367
293 1 0.000849 1560.000000 -0.000119 0.002699 0.008459
294 1 0.000850 1560.000000 -0.000416 -0.002678 0.007718
295 1 0.000905 1560.000000 0.001043 0.002173 0.005079
296 1 0.000909 1560.000000 0.001718 0.001719 0.002757
297 1 0.000862 1560.000000 0.001075 -0.001473 0.000768
298 1 0.000882 1560.000000 0.000343 0.003308 0.004494
299 1 0.000922 1560.000000 -0.002886 -0.001671 0.008378
300 1 0.000923 1560.000000 -0.000345 -0.000618 0.003119
301 1 0.000914 1560.000000 -0.002092 0.002695 0.005231
302 1 0.000871 1560.000000 -0.000033 -0.003448 0.001791
303 1 0.000879 1560.000000 -0.001100 0.000051 0.008482
304 1 0.000923 1560.000000 0.002455 -0.002503 0.001912
305 1 0.000860 1560.000000 -0.001482 0.000353 0.002180
306 1 0.000937 1560.000000 0.002607 -0.000051 0.005596
307 1 0.000906 1560.000000 0.000324 0.003318 0.005388
308 1 0.000826 1560.000000 -0.000117 0.001466 0.006080
309 1 0.000891 1560.000000 0.003226 0.000163 0.002129
310 1 0.000868 1560.000000 -0.002303 0.002625 0.009296
311 1 0.000871 1560.000000 0.001826 0.002935 0.006415
312 1 0.000916 1560.000000 -0.003427 0.000524 0.002030
313 1 0.000900 1560.000000 -0.001891 0.001817 0.002155
314 1 0.000911 1560.000000 0.003080 0.001521 0.006342
315 1 0.000890 1560.000000 -0.001629 -0.000596 0.005818
316 1 0.000900 1560.000000 -0.003455 -0.000407 0.001909
317 1 0.000928 1560.000000 0.001377 0.003095 0.004490
318 1 0.000895 1560.000000 0.000940 0.000181 0.006678
319 1 0.000819 1560.000000 -0.003288 -0.000789 0.004783
320 1 0.000887 1560.000000 -0.000394 -0.000031 0.000526
321 1 0.000889 1560.000000 0.001418 0.000744 0.002576
322 1 0.000823 1560.000000 0.002124 -0.001129 0.007271
323 1 0.000855 1560.000000 0.003336 0.000012 0.000472
324 1 0.000912 1560.000000 0.000991 0.003059 0.000817
325 1 0.000867 1560.000000 -0.001176 -0.001804 0.002225
326 1 0.000956 1560.000000 0.000122 -0.003328 0.002699
327 1 0.000830 1560.000000 -0.000805 -0.003311 0.002168
328 1 0.000968 1560.000000 0.002965 0.001828 0.009438
329 1 0.000830 1560.000000 0.001080 -0.003130 0.004028
330 1 0.000930 1560.000000 0.000798 -0.001556 0.006097
331 1 0.000811 1560.000000 0.002568 0.001035 0.000647
332 1 0.000864 1560.000000 -0.000323 0.003161 0.007001
333 1 0.000871 1560.000000 -0.000603 -0.003447 0.007241
334 1 0.000934 1560.000000 0.002072 0.000475 0.009381
335 1 0.000799 1560.000000 -0.002248 0.002382 0.006902
336 1 0.000855 1560.000000 -0.000795 0.003318 0.008037
337 1 0.000926 1560.000000 -0.002585 -0.001989 0.001750
338 1 0.000849 1560.000000 0.002589 -0.002238 0.009324
339 1 0.000916 1560.000000 -0.001056 0.003311 0.000489
340 1 0.000926 1560.000000 -0.002166 -0.000550 0.003094
341 1 0.000778 1560.000000 0.003439 -0.000491 0.003254
342 1 0.000891 1560.000000 0.000065 -0.001443 0.001262
343 1 0.000882 1560.000000 -0.001235 0.002250 0.003059
344 1 0.000901 1560.000000 -0.003073 -0.000847 0.000604
345 1 0.000916 1560.000000 0.001624 0.002978 0.009407
346 1 0.000829 1560.000000 -0.001486 -0.001352 0.006761
347 1 0.000896 1560.000000 -0.000402 0.003475 0.001268
348 1 0.000908 1560.000000 0.002676 -0.002067 0.000717
349 1 0.000907 1560.000000 -0.000308 0.002379 0.009346
350 1 0.000878 1560.000000 -0.000859 -0.003156 0.004699
351 1 0.000888 1560.000000 0.002007 -0.000061 0.007205
352 1 0.000933 1560.000000 0.000007 -0.003112 0.000500
353 1 0.000850 1560.000000 0.001963 -0.001013 0.003599
354 1 0.000803 1560.000000 0.000552 -0.002094 0.002385
355 1 0.000924 1560.000000 0.000799 -0.000090 0.008367
356 1 0.000892 1560.000000 -0.001490 0.001244 0.000710
357 1 0.000949 1560.000000 0.001499 -0.002964 0.002360
358 1 0.000910 1560.000000 -0.000380 -0.003459 0.008552
359 1 0.000963 1560.000000 -0.000029 0.003495 0.002637
360 1 0.000919 1560.000000 0.000118 0.002688 0.001599
361 1 0.000930 1560.000000 0.001068 0.001435 0.008306
362 1 0.000892 1560.000000 -0.001637 -0.000889 0.009451
363 1 0.000842 1560.000000 -0.000174 -0.001200 0.007379
364 1 0.000858 1560.000000 -0.000638 -0.001063 0.000438
365 1 0.000931 1560.000000 0.002003 -0.000067 0.000484
366 1 0.000823 1560.000000 -0.002033 -0.002235 0.005612
367 1 0.000783 1560.000000 -0.002521 -0.000987 0.008755
368 1 0.000841 1560.000000 0.000516 -0.000600 0.004194
369 1 0.000921 1560.000000 0.002910 -0.001935 0.003674
370 1 0.000910 1560.000000 0.002176 -0.000090 0.008615
371 1 0.000976 1560.000000 -0.001806 -0.002974 0.008225
372 1 0.000794 1560.000000 -0.001008 -0.001184 0.007783
373 1 0.000922 1560.000000 0.003288 -0.000392 0.001378
374 1 0.000908 1560.000000 -0.000920 -0.003369 0.003113
375 1 0.000896 1560.000000 -0.002823 -0.001962 0.002971
376 1 0.000907 1560.000000 0.001928 -0.002914 0.009403
377 1 0.000946 1560.000000 0.003466 -0.000342 0.008854
378 1 0.000885 1560.000000 0.002369 -0.002529 0.007619
379 1 0.000948 1560.000000 -0.001757 -0.002918 0.009373
380 1 0.000858 1560.000000 0.002053 0.000844 0.004448
381 1 0.000902 1560.000000 -0.002838 0.001128 0.005729
382 1 0.000832 1560.000000 -0.000416 0.002495 0.004218
383 1 0.000869 1560.000000 0.000706 -0.002011 0.008086
384 1 0.000865 1560.000000 -0.002448 0.000760 0.007651
385 1 0.000758 1560.000000 0.000609 0.000141 0.001351
386 1 0.000867 1560.000000 -0.001715 -0.002917 0.006151
387 1 0.000846 1560.000000 0.001951 -0.000639 0.002043
388 1 0.000765 1560.000000 0.001004 -0.002338 0.004885
389 1 0.000823 1560.000000 -0.001319 -0.000024 0.007280
390 1 0.000856 1560.000000 -0.003339 -0.001012 0.006267
391 1 0.000852 1560.000000 -0.000821 0.000994 0.005675
392 1 0.000872 1560.000000 0.002256 -0.002573 0.005105
393 1 0.000787 1560.000000 0.002329 0.001098 0.001413
394 1 0.000899 1560.000000 0.000147 -0.003451 0.007773
395 1 0.000930 1560.000000 -0.002071 -0.001213 0.003981
396 1 0.000957 1560.000000 -0.002133 -0.002750 0.002182
397 1 0.000853 1560.000000 -0.001200 -0.002330 0.004686
398 1 0.000850 1560.000000 -0.002685 -0.002196 0.003969
399 1 0.000891 1560.000000 -0.002725 -0.002057 0.006682
400 1 0.000917 1560.000000 -0.003343 0.001054 0.003494
