#LAMMPS data file created by matlab.
200 atoms

1 atom types

-0.005000 0.005000 xlo xhi
-0.005000 0.005000 ylo yhi
0.000000 0.020000 zlo zhi

Atoms

1 1 0.001310 1560.000000 0.001343 0.000673 0.003253
2 1 0.001251 1560.000000 0.002424 0.000639 0.006966
3 1 0.000988 1560.000000 -0.000694 0.001104 0.000920
4 1 0.000810 1560.000000 0.000095 0.000000 0.003983
5 1 0.000920 1560.000000 0.000667 0.002171 0.004496
6 1 0.000978 1560.000000 0.001328 0.001527 0.008309
7 1 0.001057 1560.000000 -0.001004 -0.000631 0.007146
8 1 0.001114 1560.000000 -0.000950 0.003060 0.004596
9 1 0.000926 1560.000000 0.001175 -0.001736 0.008884
10 1 0.001045 1560.000000 -0.001884 -0.002088 0.007948
11 1 0.000813 1560.000000 -0.000163 -0.001193 0.002185
12 1 0.001217 1560.000000 -0.000451 -0.000047 0.008668
13 1 0.000903 1560.000000 0.001565 0.001895 0.006670
14 1 0.000986 1560.000000 -0.000582 -0.002571 0.003490
15 1 0.001299 1560.000000 0.001241 -0.000593 0.004696
16 1 0.000947 1560.000000 0.002623 0.001306 0.001531
17 1 0.000864 1560.000000 0.000232 0.000449 0.001116
18 1 0.001052 1560.000000 -0.001495 0.001716 0.005041
19 1 0.000804 1560.000000 0.000151 0.000251 0.006285
20 1 0.001131 1560.000000 -0.002178 0.000793 0.004188
21 1 0.000806 1560.000000 0.002957 -0.000830 0.000728
22 1 0.001283 1560.000000 0.000886 0.002494 0.009234
23 1 0.001081 1560.000000 0.000063 0.001559 0.003643
24 1 0.000864 1560.000000 0.002778 -0.000362 0.006200
25 1 0.000971 1560.000000 -0.000099 -0.000682 0.004528
26 1 0.001232 1560.000000 -0.000177 -0.002714 0.007473
27 1 0.000849 1560.000000 -0.000005 -0.000633 0.006739
28 1 0.001222 1560.000000 0.000583 -0.002371 0.005128
29 1 0.001087 1560.000000 -0.001388 0.001127 0.002877
30 1 0.000831 1560.000000 0.000125 0.000446 0.003237
31 1 0.001009 1560.000000 0.000534 0.001356 0.005202
32 1 0.001227 1560.000000 0.001610 0.002699 0.005851
33 1 0.000833 1560.000000 -0.001165 -0.000288 0.001456
34 1 0.000855 1560.000000 0.000205 0.001099 0.008477
35 1 0.000845 1560.000000 -0.001940 0.001509 0.001644
36 1 0.001090 1560.000000 0.001598 0.000066 0.000882
37 1 0.001094 1560.000000 0.001072 0.000401 0.008364
38 1 0.000939 1560.000000 -0.002568 -0.000862 0.006425
39 1 0.000919 1560.000000 0.001732 0.001703 0.001173
40 1 0.001146 1560.000000 0.001105 -0.000939 0.002741
41 1 0.001353 1560.000000 -0.000470 0.002516 0.001090
42 1 0.000897 1560.000000 -0.002772 0.000307 0.006792
43 1 0.001033 1560.000000 -0.001270 -0.000978 0.002267
44 1 0.001013 1560.000000 0.002068 -0.000826 0.007880
45 1 0.001236 1560.000000 -0.000781 -0.000735 0.005668
46 1 0.001299 1560.000000 -0.002299 0.000298 0.005358
47 1 0.000800 1560.000000 0.003214 -0.000659 0.003519
48 1 0.000993 1560.000000 -0.000264 0.000846 0.001801
49 1 0.000876 1560.000000 -0.002339 -0.000588 0.001518
50 1 0.000828 1560.000000 0.001224 -0.000647 0.006008
51 1 0.000807 1560.000000 0.001346 -0.002622 0.006895
52 1 0.000868 1560.000000 -0.000396 -0.002091 0.000982
53 1 0.000822 1560.000000 0.001432 -0.001181 0.007063
54 1 0.000938 1560.000000 -0.000801 0.000844 0.005725
55 1 0.000973 1560.000000 -0.002092 -0.001489 0.005321
56 1 0.000967 1560.000000 0.002270 -0.001796 0.005035
57 1 0.001017 1560.000000 0.001481 0.001030 0.004952
58 1 0.001388 1560.000000 -0.000970 -0.002494 0.008853
59 1 0.000927 1560.000000 0.001733 -0.001827 0.003083
60 1 0.001002 1560.000000 -0.001438 -0.000963 0.003655
61 1 0.001013 1560.000000 0.000079 0.000035 0.007383
62 1 0.000882 1560.000000 -0.001822 -0.000018 0.008266
63 1 0.000822 1560.000000 -0.000493 0.001675 0.005135
64 1 0.000865 1560.000000 0.001763 -0.001217 0.005687
65 1 0.001047 1560.000000 -0.002875 0.001172 0.001666
66 1 0.001243 1560.000000 0.002345 -0.000320 0.004051
67 1 0.001208 1560.000000 0.000232 -0.000968 0.000842
68 1 0.000871 1560.000000 0.001080 -0.001526 0.004030
69 1 0.001012 1560.000000 0.000844 -0.000849 0.007758
70 1 0.000886 1560.000000 -0.001972 0.002200 0.003735
71 1 0.000830 1560.000000 0.000191 0.000080 0.005210
72 1 0.000882 1560.000000 -0.000151 0.001860 0.006698
73 1 0.001005 1560.000000 -0.000204 0.000012 0.002401
74 1 0.001357 1560.000000 -0.001440 0.002903 0.006888
75 1 0.000847 1560.000000 0.002582 -0.000569 0.008945
76 1 0.000969 1560.000000 0.001176 0.000048 0.006884
77 1 0.000858 1560.000000 -0.002307 -0.001447 0.000888
78 1 0.000936 1560.000000 -0.001335 0.000000 0.004688
79 1 0.001254 1560.000000 0.002009 0.002425 0.003053
80 1 0.001147 1560.000000 -0.000907 0.000421 0.006694
81 1 0.000865 1560.000000 -0.002641 -0.001294 0.008095
82 1 0.000915 1560.000000 -0.000692 0.001359 0.008415
83 1 0.000905 1560.000000 -0.001932 -0.001061 0.004481
84 1 0.001289 1560.000000 0.000821 0.002612 0.000781
85 1 0.001022 1560.000000 -0.002225 0.002088 0.000801
86 1 0.001231 1560.000000 0.000774 0.002566 0.002456
87 1 0.000927 1560.000000 -0.000243 -0.001201 0.008723
88 1 0.001228 1560.000000 -0.001942 -0.002446 0.003576
89 1 0.001077 1560.000000 0.001973 -0.001799 0.000563
90 1 0.001140 1560.000000 0.002398 0.001569 0.004371
91 1 0.001304 1560.000000 -0.002609 0.001040 0.008247
92 1 0.000864 1560.000000 -0.000221 0.003001 0.002817
93 1 0.000921 1560.000000 0.001955 -0.001313 0.001745
94 1 0.001114 1560.000000 -0.001808 -0.001952 0.006812
95 1 0.001090 1560.000000 -0.001696 0.000664 0.008996
96 1 0.001087 1560.000000 -0.000780 0.002294 0.005957
97 1 0.001080 1560.000000 -0.000850 0.002403 0.008379
98 1 0.001012 1560.000000 -0.002137 -0.002066 0.002438
99 1 0.000887 1560.000000 0.003179 0.000125 0.004614
100 1 0.000947 1560.000000 0.000916 -0.001695 0.001970
101 1 0.000915 1560.000000 0.002964 0.001014 0.002737
102 1 0.001019 1560.000000 0.001251 0.001396 0.002034
103 1 0.000800 1560.000000 -0.001117 -0.002066 0.005528
104 1 0.000815 1560.000000 0.000111 0.003025 0.005741
105 1 0.001079 1560.000000 -0.001419 -0.002059 0.001144
106 1 0.001072 1560.000000 0.000893 -0.001733 0.006143
107 1 0.001048 1560.000000 0.002731 0.001169 0.008387
108 1 0.000854 1560.000000 0.002668 0.000980 0.005676
109 1 0.001329 1560.000000 0.001713 -0.002700 0.008485
110 1 0.000849 1560.000000 0.002444 -0.002086 0.003899
111 1 0.001128 1560.000000 -0.002867 -0.000096 0.000595
112 1 0.001143 1560.000000 -0.000178 -0.003211 0.000903
113 1 0.000823 1560.000000 0.002631 -0.001591 0.006355
114 1 0.000838 1560.000000 0.002909 0.000125 0.001489
115 1 0.000859 1560.000000 0.003034 0.000482 0.008989
116 1 0.001209 1560.000000 -0.002918 -0.000565 0.008920
117 1 0.001184 1560.000000 -0.002172 -0.000131 0.003180
118 1 0.001315 1560.000000 0.000808 0.003099 0.008004
119 1 0.001055 1560.000000 0.000368 0.001562 0.007639
120 1 0.000964 1560.000000 0.002114 -0.001947 0.007500
121 1 0.001240 1560.000000 0.000904 0.000015 0.002007
122 1 0.000931 1560.000000 -0.000903 0.002655 0.003413
123 1 0.001328 1560.000000 -0.002411 0.002172 0.002369
124 1 0.001045 1560.000000 0.001743 0.000204 0.005713
125 1 0.001093 1560.000000 -0.001099 -0.002655 0.002388
126 1 0.001096 1560.000000 -0.002209 0.001966 0.006552
127 1 0.001066 1560.000000 -0.001859 -0.002594 0.005160
128 1 0.001374 1560.000000 -0.002913 -0.001157 0.002815
129 1 0.000909 1560.000000 -0.000665 0.001817 0.002194
130 1 0.000820 1560.000000 -0.001544 0.000936 0.007782
131 1 0.000947 1560.000000 0.000761 -0.002491 0.001385
132 1 0.000928 1560.000000 0.002980 0.000112 0.003021
133 1 0.001184 1560.000000 -0.003213 -0.000014 0.004065
134 1 0.000936 1560.000000 -0.003153 0.000729 0.002703
135 1 0.000903 1560.000000 -0.000749 0.000647 0.003897
136 1 0.001100 1560.000000 0.001223 -0.002932 0.002599
137 1 0.000839 1560.000000 0.002555 -0.000037 0.008195
138 1 0.000873 1560.000000 -0.000952 -0.002695 0.004833
139 1 0.001187 1560.000000 0.000408 -0.001952 0.002922
140 1 0.000832 1560.000000 0.001087 -0.003026 0.003797
141 1 0.000963 1560.000000 -0.001670 0.000837 0.000984
142 1 0.001016 1560.000000 0.000210 -0.003251 0.002744
143 1 0.000861 1560.000000 0.000498 -0.001874 0.007808
144 1 0.000990 1560.000000 0.002235 -0.000957 0.002703
145 1 0.001145 1560.000000 -0.000896 -0.001592 0.007923
146 1 0.001242 1560.000000 0.001685 -0.002571 0.005643
147 1 0.001121 1560.000000 -0.002815 0.001643 0.003683
148 1 0.000911 1560.000000 -0.002007 0.002266 0.008365
149 1 0.001400 1560.000000 -0.000231 -0.003119 0.006171
150 1 0.000914 1560.000000 -0.000391 -0.000953 0.003085
151 1 0.000913 1560.000000 0.000063 0.003021 0.004766
152 1 0.000877 1560.000000 -0.003031 0.001050 0.006343
153 1 0.001118 1560.000000 0.000893 0.003020 0.003969
154 1 0.001104 1560.000000 0.002546 -0.001881 0.009021
155 1 0.000886 1560.000000 0.000378 -0.001066 0.005636
156 1 0.001029 1560.000000 -0.000811 -0.000445 0.000532
157 1 0.001073 1560.000000 -0.000393 -0.001836 0.006664
158 1 0.001085 1560.000000 0.003005 -0.000810 0.007069
159 1 0.000930 1560.000000 -0.002996 -0.001045 0.005227
160 1 0.001334 1560.000000 0.001370 -0.000596 0.009225
161 1 0.001186 1560.000000 0.000153 0.003216 0.006844
162 1 0.000899 1560.000000 0.000394 0.001035 0.006768
163 1 0.001105 1560.000000 -0.001772 -0.001214 0.008971
164 1 0.001218 1560.000000 0.001840 0.002327 0.007605
165 1 0.001016 1560.000000 0.000368 0.001499 0.001089
166 1 0.001018 1560.000000 0.001645 0.002441 0.004592
167 1 0.001033 1560.000000 -0.002636 0.001521 0.005084
168 1 0.001365 1560.000000 0.000446 -0.003127 0.009025
169 1 0.000921 1560.000000 -0.000469 -0.001597 0.004876
170 1 0.001128 1560.000000 0.002545 0.000700 0.000656
171 1 0.001207 1560.000000 0.002549 -0.000689 0.005225
172 1 0.001168 1560.000000 -0.003170 -0.000505 0.007566
173 1 0.001287 1560.000000 0.002241 0.001943 0.009196
174 1 0.000942 1560.000000 0.000686 0.002223 0.006306
175 1 0.001120 1560.000000 0.002660 0.001922 0.000682
176 1 0.000829 1560.000000 -0.000976 0.001774 0.007327
177 1 0.000993 1560.000000 -0.001022 0.003131 0.001992
178 1 0.001034 1560.000000 0.002135 0.000653 0.002238
179 1 0.000865 1560.000000 0.001954 0.000435 0.008979
180 1 0.000913 1560.000000 -0.000940 0.001773 0.003954
181 1 0.000828 1560.000000 0.000059 -0.002531 0.004141
182 1 0.000947 1560.000000 -0.001113 -0.001702 0.002936
183 1 0.001134 1560.000000 0.001502 -0.002852 0.000671
184 1 0.000917 1560.000000 -0.001855 0.000029 0.006377
185 1 0.000957 1560.000000 -0.000129 0.003270 0.003708
186 1 0.001275 1560.000000 -0.000247 0.003283 0.008982
187 1 0.000844 1560.000000 -0.002522 -0.001909 0.008881
188 1 0.000806 1560.000000 0.002521 0.002077 0.005823
189 1 0.000949 1560.000000 0.003096 -0.001122 0.008416
190 1 0.000826 1560.000000 0.001110 0.000911 0.006237
191 1 0.001266 1560.000000 -0.003239 -0.000045 0.001835
192 1 0.000865 1560.000000 0.001537 -0.002352 0.004425
193 1 0.000803 1560.000000 0.000875 0.000367 0.004306
194 1 0.000984 1560.000000 -0.002192 -0.000927 0.007355
195 1 0.000974 1560.000000 -0.001857 0.000380 0.002035
196 1 0.000817 1560.000000 0.003041 -0.000607 0.001910
197 1 0.000857 1560.000000 0.000078 -0.001212 0.007363
198 1 0.001104 1560.000000 -0.002669 -0.001863 0.004371
199 1 0.001230 1560.000000 0.001933 0.002580 0.001787
200 1 0.001024 1560.000000 0.001397 0.001205 0.007335
