#LAMMPS data file created by matlab.
500 atoms

1 atom types

-0.004250 0.004250 xlo xhi
-0.004250 0.004250 ylo yhi
0.000000 0.020000 zlo zhi

Atoms

1 1 0.000642 1560.000000 0.000195 0.000099 0.006728
2 1 0.000584 1560.000000 -0.000186 -0.001788 0.004235
3 1 0.000849 1560.000000 -0.001192 0.001112 0.008303
4 1 0.000601 1560.000000 0.000369 0.000821 0.004003
5 1 0.000734 1560.000000 0.001607 0.000565 0.006118
6 1 0.000722 1560.000000 0.000174 0.001601 0.002529
7 1 0.000633 1560.000000 0.001136 -0.001318 0.005771
8 1 0.000601 1560.000000 -0.000866 -0.001228 0.003915
9 1 0.001073 1560.000000 -0.001761 0.002654 0.007572
10 1 0.000843 1560.000000 -0.003030 0.000333 0.003225
11 1 0.000785 1560.000000 -0.003086 -0.001515 0.007524
12 1 0.000627 1560.000000 0.000896 -0.000838 0.003666
13 1 0.000605 1560.000000 0.001445 -0.000077 0.003758
14 1 0.000700 1560.000000 -0.001516 0.002193 0.005690
15 1 0.000607 1560.000000 -0.001434 -0.001696 0.005379
16 1 0.000590 1560.000000 -0.000023 -0.001770 0.008110
17 1 0.000749 1560.000000 -0.000885 -0.001113 0.008474
18 1 0.000886 1560.000000 0.001956 -0.000953 0.000763
19 1 0.001039 1560.000000 0.000386 -0.000723 0.007335
20 1 0.000980 1560.000000 0.000947 0.002849 0.005996
21 1 0.000668 1560.000000 -0.000090 0.000635 0.000350
22 1 0.000689 1560.000000 0.000359 0.002267 0.002947
23 1 0.000682 1560.000000 -0.002930 0.001060 0.004710
24 1 0.000577 1560.000000 -0.002322 0.000847 0.005931
25 1 0.000844 1560.000000 -0.000656 -0.002014 0.001126
26 1 0.000888 1560.000000 -0.001074 0.000140 0.004376
27 1 0.000771 1560.000000 -0.003260 -0.000936 0.004629
28 1 0.000609 1560.000000 -0.002190 -0.001412 0.006210
29 1 0.000651 1560.000000 -0.000167 -0.000085 0.004096
30 1 0.000645 1560.000000 -0.002899 0.000003 0.004167
31 1 0.000720 1560.000000 0.001273 0.000083 0.001928
32 1 0.000723 1560.000000 0.000000 0.000143 0.002601
33 1 0.000688 1560.000000 0.001859 0.001385 0.000837
34 1 0.000589 1560.000000 -0.001372 0.001150 0.002403
35 1 0.000654 1560.000000 0.000953 -0.002822 0.002781
36 1 0.000865 1560.000000 -0.000248 0.001763 0.004722
37 1 0.000879 1560.000000 -0.002237 -0.001180 0.000875
38 1 0.000678 1560.000000 0.002988 -0.000597 0.006341
39 1 0.001068 1560.000000 -0.001523 -0.002812 0.004986
40 1 0.001008 1560.000000 -0.001819 -0.002111 0.000653
41 1 0.000668 1560.000000 -0.000578 0.000577 0.007518
42 1 0.000668 1560.000000 -0.000750 0.002337 0.000476
43 1 0.001053 1560.000000 0.001503 -0.002896 0.005588
44 1 0.000622 1560.000000 0.001703 0.000098 0.007147
45 1 0.000567 1560.000000 -0.001182 -0.000957 0.000575
46 1 0.000702 1560.000000 -0.000396 0.001048 0.002039
47 1 0.000606 1560.000000 -0.001323 0.000694 0.005257
48 1 0.000675 1560.000000 -0.000176 0.002167 0.003587
49 1 0.000679 1560.000000 0.001371 0.000880 0.001882
50 1 0.000813 1560.000000 -0.001159 0.001639 0.004143
51 1 0.000741 1560.000000 -0.001852 0.000625 0.008813
52 1 0.000589 1560.000000 -0.000980 0.002599 0.008275
53 1 0.000736 1560.000000 -0.000662 0.001166 0.000952
54 1 0.000711 1560.000000 -0.003233 -0.000104 0.006907
55 1 0.000589 1560.000000 -0.002015 0.000479 0.005559
56 1 0.000957 1560.000000 0.001921 -0.002121 0.005078
57 1 0.000571 1560.000000 -0.002036 0.001373 0.007840
58 1 0.000567 1560.000000 -0.001037 0.000957 0.005903
59 1 0.000648 1560.000000 -0.000139 -0.000241 0.006056
60 1 0.000795 1560.000000 0.002859 -0.000628 0.002164
61 1 0.000675 1560.000000 0.002731 -0.002045 0.007506
62 1 0.000807 1560.000000 -0.001898 0.001208 0.001833
63 1 0.000564 1560.000000 0.002362 -0.001313 0.007656
64 1 0.000681 1560.000000 -0.000390 -0.000039 0.008779
65 1 0.000619 1560.000000 -0.000542 -0.000438 0.004800
66 1 0.000897 1560.000000 -0.002247 0.001815 0.005572
67 1 0.000669 1560.000000 -0.000069 0.002108 0.006382
68 1 0.000705 1560.000000 0.003356 0.000711 0.001114
69 1 0.000642 1560.000000 0.001032 0.001542 0.004035
70 1 0.000572 1560.000000 0.000563 0.000258 0.007450
71 1 0.000699 1560.000000 -0.001141 -0.000931 0.007787
72 1 0.000657 1560.000000 -0.000117 0.000043 0.001090
73 1 0.000908 1560.000000 0.002754 0.001225 0.004918
74 1 0.000868 1560.000000 -0.001624 -0.002536 0.008731
75 1 0.000633 1560.000000 0.001110 -0.000067 0.004770
76 1 0.000637 1560.000000 0.001085 -0.001434 0.006876
77 1 0.000647 1560.000000 0.000954 0.001610 0.006347
78 1 0.000642 1560.000000 -0.000951 -0.000715 0.006829
79 1 0.000972 1560.000000 0.001620 0.002100 0.004072
80 1 0.000711 1560.000000 0.001545 0.001069 0.003835
81 1 0.000719 1560.000000 0.000769 0.002244 0.008899
82 1 0.000581 1560.000000 -0.000897 0.000352 0.002511
83 1 0.000652 1560.000000 0.001989 0.000685 0.008849
84 1 0.000718 1560.000000 0.001922 0.002338 0.006781
85 1 0.000769 1560.000000 0.000558 0.000408 0.008573
86 1 0.000847 1560.000000 -0.000475 -0.000492 0.001990
87 1 0.000778 1560.000000 -0.000473 0.003300 0.008900
88 1 0.000725 1560.000000 0.000996 0.000538 0.002724
89 1 0.000918 1560.000000 0.002158 -0.001299 0.004043
90 1 0.000921 1560.000000 -0.000563 0.002842 0.006360
91 1 0.000834 1560.000000 0.000647 -0.000375 0.002669
92 1 0.000614 1560.000000 -0.002472 -0.000383 0.001113
93 1 0.000690 1560.000000 0.001046 -0.000195 0.000808
94 1 0.000564 1560.000000 0.001407 0.000537 0.008434
95 1 0.001064 1560.000000 0.001714 -0.001464 0.003149
96 1 0.000711 1560.000000 0.001925 0.001632 0.006448
97 1 0.000578 1560.000000 0.000957 -0.001056 0.002530
98 1 0.000638 1560.000000 -0.000491 -0.003091 0.003825
99 1 0.000569 1560.000000 -0.001442 0.002166 0.006628
100 1 0.000999 1560.000000 0.002812 0.001433 0.002287
101 1 0.000610 1560.000000 0.002843 0.001370 0.008153
102 1 0.000632 1560.000000 0.000781 -0.000614 0.001749
103 1 0.000568 1560.000000 -0.002210 -0.000204 0.003497
104 1 0.000872 1560.000000 0.000346 0.000132 0.005303
105 1 0.000671 1560.000000 0.001219 -0.001190 0.000463
106 1 0.001098 1560.000000 -0.001314 -0.002158 0.006638
107 1 0.000661 1560.000000 0.000184 -0.001583 0.003314
108 1 0.000870 1560.000000 0.000743 0.001284 0.003041
109 1 0.000676 1560.000000 -0.000026 0.001126 0.006269
110 1 0.000696 1560.000000 0.002894 0.001576 0.000862
111 1 0.000788 1560.000000 0.000214 -0.000635 0.000786
112 1 0.000602 1560.000000 -0.001068 0.000614 0.003512
113 1 0.000731 1560.000000 0.002762 0.000058 0.004501
114 1 0.000575 1560.000000 0.001885 0.000556 0.002868
115 1 0.000667 1560.000000 0.002241 -0.000271 0.001858
116 1 0.000636 1560.000000 -0.000930 0.000268 0.008109
117 1 0.000878 1560.000000 0.000284 0.001524 0.005373
118 1 0.000724 1560.000000 0.002910 -0.000539 0.008344
119 1 0.000677 1560.000000 0.000427 -0.000920 0.006320
120 1 0.000913 1560.000000 0.001062 0.002913 0.003164
121 1 0.000717 1560.000000 -0.001291 0.002028 0.003465
122 1 0.000799 1560.000000 -0.002667 0.001419 0.001032
123 1 0.000914 1560.000000 0.000692 0.000380 0.001284
124 1 0.000647 1560.000000 0.000133 0.002045 0.001123
125 1 0.000816 1560.000000 -0.002182 -0.000901 0.007792
126 1 0.000887 1560.000000 0.001812 0.000212 0.000924
127 1 0.000622 1560.000000 -0.000932 0.000093 0.005220
128 1 0.000713 1560.000000 -0.000546 -0.001890 0.007095
129 1 0.001004 1560.000000 0.000459 -0.003161 0.007577
130 1 0.000665 1560.000000 0.000091 0.000795 0.007701
131 1 0.000674 1560.000000 -0.002260 0.002093 0.008871
132 1 0.000774 1560.000000 0.000513 0.003210 0.001290
133 1 0.000735 1560.000000 -0.000918 -0.000919 0.005777
134 1 0.000946 1560.000000 0.000697 -0.002843 0.001965
135 1 0.000844 1560.000000 0.002559 0.001653 0.009304
136 1 0.000671 1560.000000 -0.000007 0.002446 0.008314
137 1 0.000956 1560.000000 -0.000109 0.000843 0.009043
138 1 0.000818 1560.000000 0.002629 0.002093 0.004700
139 1 0.000572 1560.000000 0.000888 -0.001430 0.007532
140 1 0.000722 1560.000000 -0.000572 0.000214 0.006507
141 1 0.000601 1560.000000 -0.000492 0.000792 0.004030
142 1 0.000813 1560.000000 0.003328 -0.000445 0.000469
143 1 0.000742 1560.000000 0.000059 -0.000825 0.003262
144 1 0.000599 1560.000000 0.001409 0.002318 0.007281
145 1 0.000853 1560.000000 0.001947 -0.001954 0.001334
146 1 0.000754 1560.000000 -0.002326 0.000285 0.006800
147 1 0.001039 1560.000000 -0.000797 0.001044 0.006771
148 1 0.000771 1560.000000 -0.001809 0.000607 0.007366
149 1 0.000752 1560.000000 -0.002417 0.001202 0.008444
150 1 0.000565 1560.000000 0.002342 0.001901 0.008069
151 1 0.000927 1560.000000 0.000863 0.001430 0.008415
152 1 0.000608 1560.000000 -0.000044 0.003182 0.004983
153 1 0.000631 1560.000000 0.000392 -0.000010 0.001953
154 1 0.000593 1560.000000 -0.003077 0.001467 0.002766
155 1 0.000643 1560.000000 -0.001353 -0.001250 0.006829
156 1 0.000723 1560.000000 0.002448 0.000150 0.008811
157 1 0.000602 1560.000000 -0.001487 -0.001627 0.001903
158 1 0.000718 1560.000000 0.000630 -0.001699 0.002214
159 1 0.000805 1560.000000 -0.000699 0.000918 0.004999
160 1 0.000934 1560.000000 -0.001128 -0.001698 0.002768
161 1 0.000568 1560.000000 -0.001010 0.000557 0.001887
162 1 0.000726 1560.000000 0.001211 -0.001731 0.008986
163 1 0.000583 1560.000000 0.000351 -0.001390 0.005473
164 1 0.000587 1560.000000 0.001374 -0.002842 0.006643
165 1 0.000750 1560.000000 -0.002730 -0.000858 0.003258
166 1 0.000879 1560.000000 -0.000039 -0.002843 0.006390
167 1 0.000595 1560.000000 0.003262 -0.000883 0.004086
168 1 0.000579 1560.000000 0.000233 -0.000952 0.008599
169 1 0.000669 1560.000000 0.001973 0.000020 0.008254
170 1 0.000628 1560.000000 0.001518 -0.001142 0.008157
171 1 0.000673 1560.000000 -0.000607 -0.003263 0.009217
172 1 0.000597 1560.000000 0.000040 -0.002158 0.002974
173 1 0.000660 1560.000000 -0.000283 0.001486 0.003929
174 1 0.000895 1560.000000 0.000498 -0.002296 0.004854
175 1 0.000683 1560.000000 0.002537 0.002318 0.002055
176 1 0.000726 1560.000000 0.000991 -0.002019 0.001218
177 1 0.000846 1560.000000 -0.000254 -0.000954 0.009228
178 1 0.000707 1560.000000 -0.000304 0.003127 0.003655
179 1 0.001012 1560.000000 -0.000707 0.002816 0.002010
180 1 0.000925 1560.000000 -0.001747 0.001122 0.004558
181 1 0.000569 1560.000000 -0.001241 0.000255 0.008872
182 1 0.000619 1560.000000 -0.001826 0.002422 0.000456
183 1 0.000662 1560.000000 -0.003233 -0.000254 0.000426
184 1 0.000759 1560.000000 -0.001801 -0.001200 0.005677
185 1 0.000887 1560.000000 0.001978 -0.001350 0.005886
186 1 0.000970 1560.000000 -0.001492 -0.000725 0.002059
187 1 0.000715 1560.000000 0.000388 0.002562 0.004504
188 1 0.000681 1560.000000 0.001569 -0.000561 0.006688
189 1 0.000842 1560.000000 0.000654 0.000054 0.003845
190 1 0.000738 1560.000000 -0.001242 0.001620 0.001916
191 1 0.000780 1560.000000 -0.003208 0.000276 0.006134
192 1 0.000701 1560.000000 0.002416 0.001952 0.005880
193 1 0.000587 1560.000000 -0.000634 -0.002169 0.002101
194 1 0.000577 1560.000000 -0.000120 -0.000144 0.007889
195 1 0.000826 1560.000000 0.001160 -0.002710 0.008649
196 1 0.000902 1560.000000 -0.002740 0.001956 0.001789
197 1 0.000685 1560.000000 -0.002745 -0.001264 0.002252
198 1 0.000680 1560.000000 0.002967 0.001545 0.006911
199 1 0.000610 1560.000000 0.000031 0.002409 0.005062
200 1 0.000637 1560.000000 -0.001407 -0.003101 0.006106
201 1 0.000605 1560.000000 0.003372 0.000244 0.002556
202 1 0.000707 1560.000000 0.000366 -0.000712 0.005488
203 1 0.000589 1560.000000 -0.002259 0.001794 0.007003
204 1 0.000909 1560.000000 -0.002999 0.001176 0.007297
205 1 0.000567 1560.000000 -0.000961 0.000465 0.001114
206 1 0.000907 1560.000000 -0.002237 0.000001 0.007906
207 1 0.000776 1560.000000 -0.001556 -0.000772 0.004650
208 1 0.000777 1560.000000 0.003002 0.000290 0.001931
209 1 0.000710 1560.000000 0.000560 -0.000766 0.004635
210 1 0.000984 1560.000000 0.000140 0.001466 0.007082
211 1 0.001096 1560.000000 0.001445 0.002318 0.002169
212 1 0.000612 1560.000000 -0.000528 -0.003108 0.005265
213 1 0.000615 1560.000000 0.002307 0.000587 0.005157
214 1 0.000578 1560.000000 0.003014 0.000632 0.007593
215 1 0.000598 1560.000000 0.000645 0.002218 0.007168
216 1 0.000732 1560.000000 -0.002136 0.000033 0.001627
217 1 0.000640 1560.000000 0.000295 -0.001462 0.004541
218 1 0.000794 1560.000000 0.000242 -0.002140 0.001072
219 1 0.000586 1560.000000 0.000890 0.000811 0.005064
220 1 0.000599 1560.000000 0.001585 0.000753 0.004761
221 1 0.000586 1560.000000 -0.002544 -0.001970 0.003379
222 1 0.001016 1560.000000 0.002552 -0.001541 0.008804
223 1 0.000653 1560.000000 0.003087 0.001321 0.005845
224 1 0.000750 1560.000000 -0.001329 -0.002633 0.007797
225 1 0.000680 1560.000000 0.000987 -0.000008 0.007029
226 1 0.000593 1560.000000 -0.001194 -0.001235 0.001464
227 1 0.000719 1560.000000 -0.000267 0.002738 0.007676
228 1 0.000585 1560.000000 -0.000483 0.001695 0.006152
229 1 0.000643 1560.000000 -0.000995 -0.000519 0.001446
230 1 0.000998 1560.000000 0.001325 -0.000318 0.009307
231 1 0.000564 1560.000000 0.000445 0.003381 0.004558
232 1 0.000615 1560.000000 -0.000376 -0.003112 0.008200
233 1 0.000965 1560.000000 -0.000721 -0.002417 0.003310
234 1 0.000575 1560.000000 0.000001 -0.000001 0.000326
235 1 0.000611 1560.000000 -0.000287 0.001680 0.008481
236 1 0.000949 1560.000000 -0.002508 -0.000300 0.002354
237 1 0.000743 1560.000000 -0.002159 0.002005 0.002704
238 1 0.000585 1560.000000 0.001987 0.000678 0.000356
239 1 0.000603 1560.000000 0.001148 -0.000050 0.008446
240 1 0.000647 1560.000000 0.000934 0.000079 0.006200
241 1 0.000735 1560.000000 0.001920 0.002342 0.008937
242 1 0.000604 1560.000000 -0.000248 -0.002171 0.004839
243 1 0.000829 1560.000000 0.000046 0.003076 0.005731
244 1 0.000795 1560.000000 0.000248 -0.002879 0.003026
245 1 0.000690 1560.000000 0.000793 -0.002360 0.003784
246 1 0.001040 1560.000000 0.001264 0.003156 0.008111
247 1 0.000645 1560.000000 -0.001558 -0.000460 0.006062
248 1 0.000922 1560.000000 0.000593 0.001405 0.000949
249 1 0.000599 1560.000000 0.001692 -0.002077 0.006645
250 1 0.000577 1560.000000 -0.001724 0.002073 0.000993
251 1 0.000569 1560.000000 -0.000011 0.000819 0.003203
252 1 0.000686 1560.000000 -0.001002 -0.000489 0.008920
253 1 0.000858 1560.000000 -0.002310 -0.001916 0.001636
254 1 0.000574 1560.000000 0.002576 -0.000136 0.006124
255 1 0.000762 1560.000000 0.003435 0.000182 0.007931
256 1 0.000813 1560.000000 0.000636 -0.002149 0.006517
257 1 0.000655 1560.000000 -0.000252 -0.002392 0.007697
258 1 0.001007 1560.000000 0.001655 0.002676 0.000972
259 1 0.000595 1560.000000 0.000105 0.002720 0.006881
260 1 0.000730 1560.000000 0.000999 0.000854 0.006797
261 1 0.000645 1560.000000 0.001436 0.000922 0.000496
262 1 0.001069 1560.000000 -0.000789 -0.003044 0.001301
263 1 0.001016 1560.000000 -0.002139 -0.000443 0.009333
264 1 0.000697 1560.000000 -0.000599 0.001686 0.009128
265 1 0.000864 1560.000000 -0.001828 0.000604 0.003756
266 1 0.000933 1560.000000 -0.001954 -0.002799 0.001818
267 1 0.000677 1560.000000 -0.000692 -0.000527 0.003297
268 1 0.000580 1560.000000 0.000597 0.001102 0.006189
269 1 0.000568 1560.000000 0.000008 0.000085 0.003382
270 1 0.000654 1560.000000 0.000424 0.003257 0.007683
271 1 0.000624 1560.000000 0.000606 0.002866 0.005129
272 1 0.000664 1560.000000 -0.002270 -0.002054 0.007319
273 1 0.000606 1560.000000 0.001235 -0.001410 0.004481
274 1 0.000881 1560.000000 -0.000467 0.002522 0.009269
275 1 0.000877 1560.000000 -0.001951 -0.001480 0.008504
276 1 0.000630 1560.000000 -0.001807 0.001391 0.006607
277 1 0.000748 1560.000000 -0.002421 -0.002370 0.009140
278 1 0.000632 1560.000000 -0.002347 0.000971 0.005149
279 1 0.000834 1560.000000 -0.001308 0.002961 0.005126
280 1 0.000783 1560.000000 -0.000898 0.000320 0.000435
281 1 0.001104 1560.000000 -0.002259 0.000886 0.002909
282 1 0.000729 1560.000000 -0.002094 -0.001089 0.003609
283 1 0.000725 1560.000000 -0.001653 -0.002003 0.003638
284 1 0.000620 1560.000000 -0.000451 -0.001211 0.007569
285 1 0.000941 1560.000000 0.002462 0.001497 0.003633
286 1 0.000697 1560.000000 -0.003146 -0.000681 0.006237
287 1 0.000593 1560.000000 -0.000713 0.003080 0.000578
288 1 0.000688 1560.000000 -0.001132 0.001749 0.000818
289 1 0.000657 1560.000000 0.002507 -0.002018 0.003587
290 1 0.000568 1560.000000 0.003076 0.000118 0.000855
291 1 0.000565 1560.000000 -0.000396 -0.000654 0.001180
292 1 0.000688 1560.000000 0.001261 0.001644 0.004891
293 1 0.000649 1560.000000 -0.000524 0.001667 0.007813
294 1 0.000624 1560.000000 -0.002235 0.002252 0.004727
295 1 0.000921 1560.000000 0.002700 0.000662 0.006692
296 1 0.000628 1560.000000 0.003180 -0.000880 0.001346
297 1 0.000797 1560.000000 -0.002119 -0.002580 0.008021
298 1 0.000572 1560.000000 0.000160 -0.000383 0.008800
299 1 0.000871 1560.000000 0.001362 0.001863 0.005713
300 1 0.000658 1560.000000 0.000175 -0.000947 0.001627
301 1 0.000843 1560.000000 -0.001028 -0.001639 0.009117
302 1 0.000940 1560.000000 0.002704 -0.000391 0.007545
303 1 0.000594 1560.000000 0.000058 -0.001415 0.000480
304 1 0.000683 1560.000000 -0.001552 0.002811 0.001019
305 1 0.000826 1560.000000 -0.003340 -0.000723 0.001692
306 1 0.000631 1560.000000 -0.000634 0.002567 0.003996
307 1 0.000620 1560.000000 0.002209 -0.000028 0.005161
308 1 0.000624 1560.000000 0.002459 0.000301 0.002853
309 1 0.000764 1560.000000 -0.001145 0.002575 0.002778
310 1 0.000887 1560.000000 0.000297 0.003356 0.002626
311 1 0.000764 1560.000000 0.001603 -0.002908 0.000831
312 1 0.000759 1560.000000 -0.000227 0.003316 0.007203
313 1 0.000604 1560.000000 -0.001877 -0.000662 0.007149
314 1 0.001102 1560.000000 -0.002089 0.000693 0.000824
315 1 0.000763 1560.000000 -0.002722 -0.001089 0.006834
316 1 0.000616 1560.000000 0.000094 0.000599 0.004703
317 1 0.000889 1560.000000 0.000942 -0.001787 0.008181
318 1 0.000901 1560.000000 0.002896 -0.001765 0.004401
319 1 0.000611 1560.000000 0.001358 -0.001935 0.004189
320 1 0.000610 1560.000000 0.001132 0.001164 0.007697
321 1 0.000935 1560.000000 -0.001352 0.001900 0.008759
322 1 0.000752 1560.000000 0.003021 -0.000311 0.003313
323 1 0.000702 1560.000000 -0.002718 -0.001176 0.009062
324 1 0.000720 1560.000000 0.003134 -0.001396 0.006852
325 1 0.000784 1560.000000 0.000758 0.002504 0.000744
326 1 0.000858 1560.000000 -0.001592 0.002901 0.003782
327 1 0.000699 1560.000000 -0.001429 0.001719 0.007177
328 1 0.000622 1560.000000 0.002274 -0.000514 0.006648
329 1 0.000631 1560.000000 0.002366 -0.001141 0.001399
330 1 0.001060 1560.000000 0.002905 -0.001242 0.003257
331 1 0.000758 1560.000000 -0.000873 -0.003223 0.004494
332 1 0.000748 1560.000000 -0.000575 0.001546 0.002808
333 1 0.000602 1560.000000 0.000625 0.001992 0.007783
334 1 0.000819 1560.000000 0.002303 -0.001369 0.006821
335 1 0.000859 1560.000000 -0.000156 -0.002033 0.006062
336 1 0.000701 1560.000000 -0.000709 -0.001295 0.005203
337 1 0.000565 1560.000000 -0.000464 -0.000036 0.007134
338 1 0.000979 1560.000000 -0.003380 -0.000042 0.008377
339 1 0.000574 1560.000000 -0.001187 0.003123 0.008690
340 1 0.000985 1560.000000 0.001015 0.003234 0.007108
341 1 0.000701 1560.000000 -0.001185 -0.000012 0.003364
342 1 0.000603 1560.000000 -0.002656 -0.002134 0.006370
343 1 0.000690 1560.000000 -0.001834 0.002658 0.009113
344 1 0.000704 1560.000000 0.000612 0.000225 0.000427
345 1 0.000947 1560.000000 0.000547 -0.003293 0.000612
346 1 0.000659 1560.000000 0.001535 -0.000001 0.005616
347 1 0.000683 1560.000000 -0.001322 0.001542 0.005936
348 1 0.000645 1560.000000 -0.000974 0.003112 0.007246
349 1 0.000700 1560.000000 -0.002176 -0.000473 0.005714
350 1 0.000606 1560.000000 -0.001182 -0.000125 0.006448
351 1 0.000810 1560.000000 -0.000339 -0.001024 0.006563
352 1 0.000929 1560.000000 0.003263 0.000572 0.008898
353 1 0.000564 1560.000000 -0.003094 0.000331 0.007425
354 1 0.000878 1560.000000 0.000335 0.002077 0.001862
355 1 0.000659 1560.000000 0.001400 -0.001209 0.001314
356 1 0.000692 1560.000000 -0.003382 0.000304 0.001113
357 1 0.001053 1560.000000 -0.003217 0.000239 0.009407
358 1 0.000688 1560.000000 0.001228 0.000745 0.009200
359 1 0.000734 1560.000000 -0.002143 -0.002374 0.005752
360 1 0.000606 1560.000000 -0.002753 0.001540 0.003508
361 1 0.000799 1560.000000 -0.001618 -0.000456 0.000909
362 1 0.000662 1560.000000 0.001003 -0.000543 0.005788
363 1 0.000788 1560.000000 0.003387 0.000485 0.003632
364 1 0.000653 1560.000000 0.001718 -0.000862 0.005127
365 1 0.000721 1560.000000 0.003345 0.000018 0.005288
366 1 0.000855 1560.000000 0.001567 -0.000489 0.002888
367 1 0.000892 1560.000000 -0.002725 0.000984 0.001921
368 1 0.000624 1560.000000 0.001742 0.000986 0.006689
369 1 0.000584 1560.000000 0.002946 0.001569 0.007562
370 1 0.000805 1560.000000 0.000080 -0.002305 0.009192
371 1 0.000796 1560.000000 0.002316 -0.001884 0.002152
372 1 0.000962 1560.000000 0.001692 -0.002872 0.002108
373 1 0.000881 1560.000000 0.002477 0.000633 0.001360
374 1 0.000776 1560.000000 -0.003158 -0.000823 0.007906
375 1 0.000765 1560.000000 -0.003310 0.000583 0.004041
376 1 0.001074 1560.000000 0.001747 -0.002798 0.003176
377 1 0.001026 1560.000000 0.002127 0.000788 0.007899
378 1 0.000752 1560.000000 0.001251 -0.002077 0.000451
379 1 0.000601 1560.000000 -0.001273 -0.002350 0.002330
380 1 0.000586 1560.000000 0.001140 -0.000651 0.008037
381 1 0.000692 1560.000000 0.002189 0.001998 0.001470
382 1 0.000658 1560.000000 -0.000784 -0.001800 0.007936
383 1 0.000843 1560.000000 -0.002312 0.002028 0.003890
384 1 0.000757 1560.000000 -0.000840 -0.002079 0.005519
385 1 0.000906 1560.000000 -0.001630 -0.001568 0.007575
386 1 0.000581 1560.000000 -0.000008 0.000556 0.005935
387 1 0.000872 1560.000000 -0.001081 -0.001920 0.004592
388 1 0.000615 1560.000000 0.000657 -0.002105 0.007410
389 1 0.000991 1560.000000 -0.002673 -0.001412 0.005116
390 1 0.000732 1560.000000 0.000640 -0.003308 0.009236
391 1 0.000612 1560.000000 0.001881 0.002823 0.005121
392 1 0.000586 1560.000000 0.000444 0.003102 0.003652
393 1 0.000578 1560.000000 -0.001823 -0.001404 0.004260
394 1 0.000588 1560.000000 0.000588 -0.003012 0.005456
395 1 0.000759 1560.000000 -0.002807 -0.001838 0.008664
396 1 0.000878 1560.000000 -0.002043 0.002672 0.006519
397 1 0.001060 1560.000000 0.002792 -0.000767 0.005236
398 1 0.000604 1560.000000 -0.002387 -0.001072 0.001685
399 1 0.000602 1560.000000 -0.001614 0.001892 0.007941
400 1 0.000904 1560.000000 -0.002712 0.001357 0.009209
401 1 0.000722 1560.000000 -0.001325 -0.002713 0.004061
402 1 0.001022 1560.000000 0.001135 -0.003239 0.004533
403 1 0.000677 1560.000000 -0.002079 -0.000375 0.004207
404 1 0.000889 1560.000000 0.002083 0.002557 0.007652
405 1 0.000767 1560.000000 0.001410 0.001511 0.001469
406 1 0.001110 1560.000000 0.001756 -0.002648 0.007651
407 1 0.000676 1560.000000 0.002466 0.000115 0.000369
408 1 0.000687 1560.000000 0.001740 -0.001196 0.007374
409 1 0.000643 1560.000000 0.000119 -0.003360 0.008719
410 1 0.000672 1560.000000 0.002003 -0.002279 0.005940
411 1 0.000755 1560.000000 0.002477 -0.002180 0.000531
412 1 0.000576 1560.000000 -0.000375 0.000670 0.001464
413 1 0.000683 1560.000000 -0.001713 0.000525 0.006446
414 1 0.000803 1560.000000 -0.000809 -0.003341 0.002780
415 1 0.000671 1560.000000 -0.002412 -0.001837 0.004073
416 1 0.000702 1560.000000 0.000294 0.003243 0.009040
417 1 0.000831 1560.000000 0.001594 0.001586 0.002920
418 1 0.000689 1560.000000 0.003419 0.000294 0.006872
419 1 0.000629 1560.000000 0.002860 -0.001473 0.005934
420 1 0.000952 1560.000000 -0.003406 -0.000105 0.004900
421 1 0.000765 1560.000000 -0.000629 -0.002695 0.007119
422 1 0.001053 1560.000000 -0.002035 -0.002612 0.003058
423 1 0.000682 1560.000000 0.002256 0.001592 0.007401
424 1 0.000857 1560.000000 -0.003191 0.001090 0.005603
425 1 0.000711 1560.000000 0.000047 0.003039 0.000663
426 1 0.001021 1560.000000 -0.002822 0.001665 0.006418
427 1 0.000561 1560.000000 -0.000774 -0.000525 0.004190
428 1 0.000591 1560.000000 -0.001155 -0.000216 0.007762
429 1 0.000572 1560.000000 -0.000705 -0.002462 0.004282
430 1 0.000893 1560.000000 -0.000714 0.002131 0.005560
431 1 0.000850 1560.000000 0.002083 -0.002429 0.004071
432 1 0.000702 1560.000000 -0.000695 -0.000477 0.000508
433 1 0.000594 1560.000000 -0.002690 0.000049 0.005454
434 1 0.000613 1560.000000 -0.000652 -0.001084 0.002582
435 1 0.000593 1560.000000 0.000377 0.000760 0.002412
436 1 0.000601 1560.000000 -0.000393 0.000556 0.008286
437 1 0.000707 1560.000000 0.002773 -0.001640 0.000942
438 1 0.001033 1560.000000 0.001867 -0.002853 0.009388
439 1 0.000831 1560.000000 0.002354 0.001066 0.005763
440 1 0.000677 1560.000000 0.003178 -0.001182 0.000593
441 1 0.000586 1560.000000 -0.001403 0.001654 0.005023
442 1 0.000629 1560.000000 -0.002457 0.000224 0.004778
443 1 0.000802 1560.000000 -0.001244 -0.002876 0.000459
444 1 0.000970 1560.000000 0.002640 -0.000588 0.009244
445 1 0.000613 1560.000000 0.001688 -0.000638 0.008565
446 1 0.000711 1560.000000 0.002309 -0.000199 0.003770
447 1 0.000652 1560.000000 0.002011 0.001420 0.008813
448 1 0.000837 1560.000000 -0.000185 -0.003156 0.002129
449 1 0.000561 1560.000000 -0.003278 -0.001030 0.003961
450 1 0.000744 1560.000000 0.001372 0.003076 0.003962
451 1 0.000902 1560.000000 -0.001801 0.002543 0.002116
452 1 0.000712 1560.000000 -0.001780 0.002848 0.005775
453 1 0.000756 1560.000000 0.001140 0.001638 0.007178
454 1 0.000749 1560.000000 0.001508 -0.001571 0.002005
455 1 0.000610 1560.000000 -0.002049 -0.001124 0.002644
456 1 0.000617 1560.000000 -0.003043 -0.000684 0.005363
457 1 0.000659 1560.000000 0.001499 0.002931 0.009073
458 1 0.000627 1560.000000 -0.000441 0.001718 0.001931
459 1 0.001053 1560.000000 0.000102 -0.003426 0.004543
460 1 0.000571 1560.000000 0.002367 0.000920 0.003135
461 1 0.000881 1560.000000 0.002032 0.002381 0.002970
462 1 0.000565 1560.000000 0.001521 0.000263 0.007870
463 1 0.000611 1560.000000 -0.001587 -0.000977 0.003046
464 1 0.000908 1560.000000 -0.000476 -0.002241 0.008525
465 1 0.000683 1560.000000 -0.001761 0.000239 0.002237
466 1 0.000690 1560.000000 -0.002812 -0.001731 0.002767
467 1 0.000900 1560.000000 -0.003295 0.000309 0.002250
468 1 0.000611 1560.000000 -0.000227 -0.000753 0.007996
469 1 0.000582 1560.000000 0.001640 -0.000554 0.005931
470 1 0.000608 1560.000000 -0.000976 0.003079 0.004373
471 1 0.001011 1560.000000 0.001352 0.001738 0.009341
472 1 0.000604 1560.000000 0.000484 -0.001992 0.005553
473 1 0.000997 1560.000000 -0.002751 0.002070 0.007805
474 1 0.000788 1560.000000 -0.000597 0.002630 0.004759
475 1 0.000594 1560.000000 -0.002523 -0.000311 0.000373
476 1 0.000779 1560.000000 0.000855 -0.001076 0.009112
477 1 0.000826 1560.000000 0.000675 -0.001280 0.001083
478 1 0.001047 1560.000000 -0.003258 -0.001111 0.000573
479 1 0.000570 1560.000000 -0.002592 -0.001772 0.007982
480 1 0.000664 1560.000000 -0.002765 0.000629 0.007936
481 1 0.000804 1560.000000 0.001723 -0.001170 0.009200
482 1 0.000603 1560.000000 -0.002262 -0.000356 0.006452
483 1 0.000761 1560.000000 -0.003184 0.001276 0.008485
484 1 0.000612 1560.000000 0.002001 -0.001834 0.007429
485 1 0.000631 1560.000000 -0.000771 0.001164 0.003598
486 1 0.000949 1560.000000 -0.000654 0.002233 0.007075
487 1 0.000780 1560.000000 -0.000377 0.003401 0.001297
488 1 0.001085 1560.000000 -0.001168 0.000982 0.009314
489 1 0.000995 1560.000000 0.001830 -0.000355 0.004484
490 1 0.000836 1560.000000 0.003126 0.000567 0.005868
491 1 0.000718 1560.000000 0.002832 0.000797 0.000536
492 1 0.000711 1560.000000 0.001391 0.001964 0.007846
493 1 0.000847 1560.000000 0.001990 0.001369 0.004484
494 1 0.000642 1560.000000 0.001835 0.001167 0.002294
495 1 0.000588 1560.000000 -0.001200 0.001080 0.003089
496 1 0.000590 1560.000000 0.002255 0.001918 0.000329
497 1 0.000692 1560.000000 0.001277 0.003024 0.004964
498 1 0.000768 1560.000000 -0.003161 0.001327 0.000417
499 1 0.001060 1560.000000 0.001987 0.002747 0.005976
500 1 0.000583 1560.000000 -0.000345 -0.003356 0.007395
