#LAMMPS data file created by matlab.
400 atoms

1 atom types

-0.005000 0.005000 xlo xhi
-0.005000 0.005000 ylo yhi
0.000000 0.020000 zlo zhi

Atoms

1 1 0.000891 1560.000000 0.001314 -0.000331 0.002743
2 1 0.000811 1560.000000 -0.000066 -0.002189 0.006030
3 1 0.000844 1560.000000 0.001595 0.002412 0.008571
4 1 0.000879 1560.000000 -0.001185 -0.001331 0.009396
5 1 0.000889 1560.000000 -0.001993 -0.000075 0.003899
6 1 0.000839 1560.000000 0.000196 -0.000441 0.008135
7 1 0.000874 1560.000000 -0.001675 -0.001351 0.001312
8 1 0.000848 1560.000000 0.002388 0.000270 0.000709
9 1 0.000894 1560.000000 -0.000533 -0.001669 0.003643
10 1 0.000767 1560.000000 -0.002683 0.000190 0.006547
11 1 0.000955 1560.000000 -0.001112 -0.000470 0.002048
12 1 0.000812 1560.000000 -0.000193 0.003063 0.006499
13 1 0.000877 1560.000000 -0.000878 -0.002121 0.008711
14 1 0.000853 1560.000000 -0.000337 0.000537 0.007939
15 1 0.000946 1560.000000 0.000017 -0.000160 0.003970
16 1 0.000879 1560.000000 0.000152 0.003067 0.001129
17 1 0.000893 1560.000000 -0.000753 0.002149 0.005255
18 1 0.000811 1560.000000 -0.000637 -0.000693 0.005190
19 1 0.000809 1560.000000 -0.002832 -0.000775 0.006076
20 1 0.000916 1560.000000 0.000947 0.001693 0.008826
21 1 0.000925 1560.000000 -0.000136 -0.000036 0.001115
22 1 0.000860 1560.000000 -0.001456 0.000374 0.007078
23 1 0.000888 1560.000000 -0.000118 0.000584 0.003088
24 1 0.000897 1560.000000 0.000139 -0.000029 0.002318
25 1 0.000893 1560.000000 0.000632 -0.001351 0.005518
26 1 0.000892 1560.000000 0.001278 -0.000051 0.006842
27 1 0.000876 1560.000000 -0.000012 -0.000118 0.007066
28 1 0.000854 1560.000000 -0.001982 0.000832 0.007910
29 1 0.000892 1560.000000 -0.003469 -0.000098 0.003489
30 1 0.000969 1560.000000 -0.000959 0.002270 0.004272
31 1 0.000901 1560.000000 -0.000419 -0.000062 0.009274
32 1 0.000914 1560.000000 0.000501 -0.001878 0.008620
33 1 0.000869 1560.000000 0.001720 -0.001649 0.001198
34 1 0.000931 1560.000000 -0.002547 0.000425 0.003237
35 1 0.000901 1560.000000 -0.002644 0.000653 0.000480
36 1 0.000864 1560.000000 -0.001576 -0.001497 0.002879
37 1 0.000916 1560.000000 -0.000019 -0.003465 0.003379
38 1 0.000853 1560.000000 0.001730 -0.002246 0.008358
39 1 0.000829 1560.000000 -0.000659 -0.001161 0.006765
40 1 0.000900 1560.000000 -0.002427 -0.001933 0.001151
41 1 0.000861 1560.000000 0.000324 0.001291 0.004224
42 1 0.000849 1560.000000 -0.003414 -0.000120 0.009164
43 1 0.000823 1560.000000 0.000698 -0.001380 0.001924
44 1 0.000839 1560.000000 0.001956 0.001196 0.006853
45 1 0.000869 1560.000000 0.002624 0.000380 0.003234
46 1 0.000857 1560.000000 0.002460 0.000002 0.001822
47 1 0.000862 1560.000000 -0.000198 -0.002519 0.008203
48 1 0.000877 1560.000000 -0.001846 0.000478 0.005737
49 1 0.000852 1560.000000 0.000422 0.002940 0.003931
50 1 0.000888 1560.000000 0.001000 0.000403 0.005805
51 1 0.000881 1560.000000 -0.000995 0.001085 0.001162
52 1 0.000846 1560.000000 0.003140 0.000356 0.009210
53 1 0.000877 1560.000000 0.000369 -0.001574 0.003007
54 1 0.000877 1560.000000 -0.002403 -0.000106 0.001782
55 1 0.000861 1560.000000 0.000927 -0.002315 0.007738
56 1 0.000903 1560.000000 0.002069 0.001632 0.008367
57 1 0.000936 1560.000000 0.000090 0.000496 0.006362
58 1 0.000883 1560.000000 -0.003001 0.001302 0.002555
59 1 0.000908 1560.000000 0.002227 0.000195 0.008564
60 1 0.000949 1560.000000 -0.002157 0.000411 0.008917
61 1 0.000941 1560.000000 -0.002337 -0.000915 0.009131
62 1 0.000897 1560.000000 0.000843 0.001307 0.002677
63 1 0.000946 1560.000000 -0.002289 0.002093 0.003272
64 1 0.000891 1560.000000 0.000249 0.003090 0.008969
65 1 0.000889 1560.000000 0.001117 0.001721 0.006439
66 1 0.000924 1560.000000 -0.001023 -0.002117 0.002121
67 1 0.000921 1560.000000 0.002287 -0.001064 0.001957
68 1 0.000861 1560.000000 0.001284 -0.000807 0.004346
69 1 0.000813 1560.000000 0.001794 0.001525 0.003472
70 1 0.000881 1560.000000 0.002380 -0.000262 0.003939
71 1 0.000948 1560.000000 0.000441 0.001502 0.007909
72 1 0.000891 1560.000000 0.001513 -0.001673 0.006500
73 1 0.000902 1560.000000 0.000251 -0.002442 0.000571
74 1 0.000786 1560.000000 -0.000029 0.000045 0.004867
75 1 0.000868 1560.000000 -0.001461 -0.000870 0.007052
76 1 0.000878 1560.000000 -0.000812 -0.000958 0.000604
77 1 0.000812 1560.000000 0.001394 -0.001150 0.009256
78 1 0.000855 1560.000000 -0.002167 -0.002684 0.001626
79 1 0.000876 1560.000000 0.003149 -0.000465 0.005185
80 1 0.000832 1560.000000 0.000366 -0.002804 0.005438
81 1 0.000889 1560.000000 0.001610 -0.001673 0.003432
82 1 0.000874 1560.000000 0.001346 0.002422 0.005063
83 1 0.000935 1560.000000 -0.002859 0.000804 0.005809
84 1 0.000885 1560.000000 0.000680 0.000472 0.008044
85 1 0.000822 1560.000000 -0.001774 0.000992 0.002388
86 1 0.000923 1560.000000 0.002708 -0.001756 0.006814
87 1 0.000841 1560.000000 0.000552 0.001732 0.001179
88 1 0.000905 1560.000000 -0.000316 0.001060 0.004989
89 1 0.000838 1560.000000 0.002380 -0.001974 0.002468
90 1 0.000884 1560.000000 -0.001069 0.001970 0.001066
91 1 0.000921 1560.000000 0.001447 0.000001 0.000690
92 1 0.000810 1560.000000 -0.000201 0.000942 0.008972
93 1 0.000964 1560.000000 0.001237 0.002572 0.001533
94 1 0.000902 1560.000000 0.002112 0.000733 0.005877
95 1 0.000861 1560.000000 0.001006 -0.002192 0.003921
96 1 0.000839 1560.000000 0.000189 -0.001413 0.007780
97 1 0.000835 1560.000000 -0.001514 0.001691 0.008349
98 1 0.000827 1560.000000 -0.001041 0.000234 0.004978
99 1 0.000877 1560.000000 -0.001445 0.000130 0.001039
100 1 0.000865 1560.000000 -0.002513 0.001965 0.006372
101 1 0.000895 1560.000000 -0.001081 0.001844 0.009310
102 1 0.000903 1560.000000 -0.002066 -0.002121 0.003875
103 1 0.000822 1560.000000 0.000202 0.002884 0.002751
104 1 0.000891 1560.000000 0.000339 -0.000854 0.009408
105 1 0.000905 1560.000000 0.000440 -0.002323 0.001729
106 1 0.000845 1560.000000 -0.000614 0.002087 0.003205
107 1 0.000863 1560.000000 -0.001540 0.001301 0.005547
108 1 0.000881 1560.000000 0.000790 0.003128 0.004819
109 1 0.000916 1560.000000 0.002039 -0.001282 0.004441
110 1 0.000837 1560.000000 -0.000795 -0.002527 0.005473
111 1 0.000837 1560.000000 -0.001528 -0.000137 0.008369
112 1 0.000892 1560.000000 0.002112 0.001340 0.000814
113 1 0.000916 1560.000000 -0.001880 0.002262 0.007410
114 1 0.000825 1560.000000 -0.002511 0.001334 0.004254
115 1 0.000880 1560.000000 -0.000371 -0.000931 0.003052
116 1 0.000890 1560.000000 0.000064 0.001737 0.005466
117 1 0.000835 1560.000000 -0.002449 0.002017 0.002069
118 1 0.000844 1560.000000 0.000033 -0.003180 0.009357
119 1 0.000858 1560.000000 -0.002587 0.002242 0.008911
120 1 0.000871 1560.000000 0.001477 -0.000784 0.008253
121 1 0.000926 1560.000000 -0.003169 -0.000868 0.001346
122 1 0.000854 1560.000000 -0.000626 0.000810 0.004194
123 1 0.001011 1560.000000 -0.000462 -0.001861 0.004655
124 1 0.000917 1560.000000 0.002775 0.000272 0.007204
125 1 0.000888 1560.000000 -0.000325 -0.001294 0.008817
126 1 0.000833 1560.000000 -0.002445 -0.001406 0.001847
127 1 0.000941 1560.000000 -0.001684 -0.002975 0.005496
128 1 0.000920 1560.000000 -0.001383 0.000352 0.002873
129 1 0.000829 1560.000000 0.001203 0.002116 0.004131
130 1 0.000981 1560.000000 -0.001231 -0.002967 0.008889
131 1 0.000825 1560.000000 0.000712 -0.000554 0.000775
132 1 0.000965 1560.000000 0.000933 0.000069 0.008953
133 1 0.000865 1560.000000 -0.002637 0.001321 0.007574
134 1 0.000858 1560.000000 0.000990 0.000137 0.001508
135 1 0.000921 1560.000000 -0.000617 0.000323 0.001947
136 1 0.000848 1560.000000 0.000502 -0.003243 0.002664
137 1 0.000824 1560.000000 -0.000511 -0.003167 0.000835
138 1 0.000849 1560.000000 0.001199 -0.000366 0.005090
139 1 0.000875 1560.000000 0.003158 -0.000556 0.006319
140 1 0.000878 1560.000000 -0.000580 -0.002081 0.000483
141 1 0.000884 1560.000000 0.002351 -0.000622 0.009073
142 1 0.000945 1560.000000 -0.000995 0.003297 0.004204
143 1 0.000854 1560.000000 -0.000331 0.003313 0.007665
144 1 0.000955 1560.000000 0.000486 -0.003350 0.006917
145 1 0.000873 1560.000000 -0.002204 -0.001464 0.006534
146 1 0.000897 1560.000000 -0.000741 0.002644 0.008857
147 1 0.000904 1560.000000 -0.001292 -0.002564 0.003526
148 1 0.000901 1560.000000 -0.000831 0.001173 0.002377
149 1 0.000859 1560.000000 -0.001698 -0.002693 0.008088
150 1 0.000922 1560.000000 -0.002905 -0.001052 0.002591
151 1 0.000931 1560.000000 0.002244 0.002314 0.005809
152 1 0.000933 1560.000000 -0.001411 -0.000808 0.003902
153 1 0.000949 1560.000000 -0.001067 0.002957 0.007218
154 1 0.000862 1560.000000 -0.001442 -0.001353 0.004713
155 1 0.000864 1560.000000 -0.001402 -0.002954 0.002211
156 1 0.000868 1560.000000 0.002853 -0.001747 0.008269
157 1 0.000927 1560.000000 0.002736 0.001010 0.004523
158 1 0.000888 1560.000000 0.001274 0.000426 0.004327
159 1 0.000891 1560.000000 0.002876 -0.001687 0.001276
160 1 0.000837 1560.000000 0.000990 -0.000053 0.003530
161 1 0.000841 1560.000000 0.001235 -0.000867 0.005912
162 1 0.000920 1560.000000 0.001416 -0.001931 0.002385
163 1 0.000914 1560.000000 0.001400 -0.002961 0.008801
164 1 0.000821 1560.000000 -0.000813 0.001205 0.006431
165 1 0.000859 1560.000000 -0.001832 -0.000384 0.005157
166 1 0.000887 1560.000000 -0.002638 -0.001511 0.007938
167 1 0.000869 1560.000000 0.000001 0.001660 0.002380
168 1 0.000863 1560.000000 -0.002592 -0.001075 0.003942
169 1 0.000865 1560.000000 0.000016 -0.001385 0.000862
170 1 0.000836 1560.000000 0.000700 -0.002426 0.006578
171 1 0.000900 1560.000000 0.000241 0.000766 0.000764
172 1 0.000853 1560.000000 -0.001736 0.002239 0.005932
173 1 0.000895 1560.000000 0.002015 -0.002520 0.006966
174 1 0.000928 1560.000000 0.001213 -0.003039 0.000830
175 1 0.000858 1560.000000 0.000915 0.002258 0.002995
176 1 0.000948 1560.000000 0.001479 0.003029 0.003882
177 1 0.000849 1560.000000 -0.000152 -0.000670 0.006131
178 1 0.000823 1560.000000 -0.003255 0.000352 0.008033
179 1 0.000899 1560.000000 -0.000876 0.002145 0.007761
180 1 0.000792 1560.000000 -0.001494 -0.001694 0.007192
181 1 0.000897 1560.000000 -0.002374 -0.001431 0.005593
182 1 0.000836 1560.000000 0.003194 0.000877 0.002749
183 1 0.000890 1560.000000 0.000623 -0.001343 0.006634
184 1 0.001033 1560.000000 0.002998 -0.001550 0.003667
185 1 0.000796 1560.000000 0.000720 0.000812 0.002000
186 1 0.000895 1560.000000 0.001975 -0.002348 0.004649
187 1 0.000917 1560.000000 -0.000891 -0.001421 0.007837
188 1 0.000850 1560.000000 0.002857 -0.000714 0.007752
189 1 0.000831 1560.000000 -0.001826 -0.002820 0.006907
190 1 0.000900 1560.000000 0.000121 -0.002379 0.003619
191 1 0.000919 1560.000000 -0.001549 0.001416 0.003234
192 1 0.000877 1560.000000 -0.000683 -0.003159 0.007061
193 1 0.000862 1560.000000 0.001782 0.001346 0.001981
194 1 0.000958 1560.000000 -0.001067 -0.000593 0.006020
195 1 0.000925 1560.000000 -0.000770 0.002430 0.001792
196 1 0.000912 1560.000000 -0.002644 -0.001863 0.009167
197 1 0.000872 1560.000000 0.001973 0.002214 0.000571
198 1 0.000840 1560.000000 0.000024 0.002041 0.009166
199 1 0.000898 1560.000000 0.001217 -0.002079 0.005581
200 1 0.000822 1560.000000 0.002750 0.001828 0.003675
201 1 0.000850 1560.000000 -0.002232 -0.000519 0.007361
202 1 0.000821 1560.000000 -0.000908 0.002814 0.005798
203 1 0.000843 1560.000000 -0.002682 0.001414 0.001172
204 1 0.000914 1560.000000 0.001741 -0.002847 0.002011
205 1 0.000923 1560.000000 0.003187 0.001214 0.008354
206 1 0.000882 1560.000000 0.001318 0.002543 0.006948
207 1 0.000881 1560.000000 0.002452 0.002178 0.002857
208 1 0.000823 1560.000000 -0.001219 0.001917 0.006605
209 1 0.000844 1560.000000 -0.001254 -0.002725 0.004730
210 1 0.000947 1560.000000 -0.001478 0.003047 0.002056
211 1 0.000891 1560.000000 0.003287 0.000673 0.006169
212 1 0.000938 1560.000000 0.003385 -0.000285 0.002690
213 1 0.000836 1560.000000 -0.002589 0.000304 0.007466
214 1 0.000872 1560.000000 -0.000794 0.003265 0.000804
215 1 0.000869 1560.000000 -0.001326 -0.003100 0.001357
216 1 0.000906 1560.000000 0.001227 -0.002978 0.005361
217 1 0.000879 1560.000000 -0.000205 0.003054 0.005259
218 1 0.000853 1560.000000 0.002137 -0.000864 0.005927
219 1 0.000875 1560.000000 0.001431 -0.002998 0.004110
220 1 0.000861 1560.000000 -0.001971 0.001309 0.006765
221 1 0.000903 1560.000000 0.001135 0.000842 0.000968
222 1 0.000743 1560.000000 -0.001995 -0.000549 0.000384
223 1 0.000815 1560.000000 0.001708 0.001689 0.004678
224 1 0.000908 1560.000000 -0.002094 0.002695 0.004680
225 1 0.000858 1560.000000 0.002599 0.001836 0.007550
226 1 0.000874 1560.000000 0.002338 -0.001711 0.005565
227 1 0.000890 1560.000000 -0.002983 0.000401 0.002408
228 1 0.000850 1560.000000 -0.000151 -0.002079 0.009367
229 1 0.000933 1560.000000 0.003154 -0.000403 0.000991
230 1 0.000883 1560.000000 -0.002666 -0.001873 0.002881
231 1 0.000902 1560.000000 -0.001930 0.002662 0.000976
232 1 0.000921 1560.000000 -0.000688 -0.001511 0.005741
233 1 0.000862 1560.000000 0.000940 0.001312 0.004924
234 1 0.000865 1560.000000 -0.002666 0.001998 0.005312
235 1 0.000924 1560.000000 -0.000263 -0.003023 0.006229
236 1 0.000906 1560.000000 -0.003257 0.000190 0.004794
237 1 0.000863 1560.000000 -0.000188 -0.002738 0.002859
238 1 0.000886 1560.000000 0.001554 -0.003073 0.007672
239 1 0.000807 1560.000000 0.002291 -0.000719 0.000569
240 1 0.000800 1560.000000 -0.002238 -0.000638 0.003284
241 1 0.000832 1560.000000 0.002921 0.001820 0.008932
242 1 0.000902 1560.000000 -0.003353 -0.000924 0.005364
243 1 0.000863 1560.000000 -0.003264 -0.000021 0.005771
244 1 0.000800 1560.000000 -0.000526 0.001100 0.007276
245 1 0.000878 1560.000000 0.002514 0.002364 0.001294
246 1 0.000885 1560.000000 0.001450 0.000660 0.002918
247 1 0.000922 1560.000000 -0.000634 -0.002187 0.007373
248 1 0.000853 1560.000000 -0.000332 -0.001398 0.002116
249 1 0.000937 1560.000000 0.001987 0.000405 0.004939
250 1 0.000898 1560.000000 -0.003222 -0.000961 0.007527
251 1 0.000845 1560.000000 0.000393 0.002182 0.004718
252 1 0.000903 1560.000000 -0.002571 0.001290 0.009279
253 1 0.000894 1560.000000 -0.001596 0.001743 0.001996
254 1 0.000911 1560.000000 -0.001169 -0.002093 0.006336
255 1 0.000876 1560.000000 0.002777 0.001701 0.006659
256 1 0.000831 1560.000000 0.003065 0.001428 0.001191
257 1 0.000859 1560.000000 0.002250 -0.000895 0.006950
258 1 0.000828 1560.000000 0.001295 0.001688 0.007597
259 1 0.000885 1560.000000 -0.000047 0.001082 0.001704
260 1 0.000898 1560.000000 0.001226 0.000954 0.009325
261 1 0.000877 1560.000000 0.003357 -0.000660 0.003596
262 1 0.000844 1560.000000 0.000471 0.002306 0.006983
263 1 0.000855 1560.000000 0.000552 -0.002084 0.004904
264 1 0.000881 1560.000000 -0.000705 0.000577 0.000463
265 1 0.000976 1560.000000 0.000575 0.000952 0.007082
266 1 0.000831 1560.000000 0.002226 0.001188 0.009258
267 1 0.000904 1560.000000 -0.000886 0.000064 0.003607
268 1 0.000833 1560.000000 -0.003319 0.000973 0.006893
269 1 0.000859 1560.000000 0.002788 -0.001785 0.009232
270 1 0.000889 1560.000000 0.001281 0.002987 0.005785
271 1 0.000899 1560.000000 0.000485 -0.003160 0.008222
272 1 0.000887 1560.000000 0.000775 0.002507 0.000563
273 1 0.000871 1560.000000 0.001441 -0.000057 0.007763
274 1 0.000864 1560.000000 0.003376 0.000240 0.007944
275 1 0.000896 1560.000000 0.001232 0.003102 0.002846
276 1 0.000834 1560.000000 0.003358 0.000777 0.001652
277 1 0.000946 1560.000000 -0.002965 -0.000790 0.008404
278 1 0.000827 1560.000000 0.000509 0.002664 0.007915
279 1 0.000833 1560.000000 0.002898 -0.001617 0.004594
280 1 0.000831 1560.000000 0.002628 0.001503 0.005547
281 1 0.000843 1560.000000 -0.000578 0.003329 0.001915
282 1 0.000923 1560.000000 0.001484 0.000800 0.008355
283 1 0.000799 1560.000000 -0.001978 -0.002122 0.002256
284 1 0.000900 1560.000000 -0.000409 -0.002802 0.004488
285 1 0.000918 1560.000000 0.001314 0.003183 0.007975
286 1 0.000937 1560.000000 0.001703 -0.000471 0.001457
287 1 0.000873 1560.000000 -0.001616 -0.002495 0.000786
288 1 0.000831 1560.000000 -0.000284 0.001727 0.000660
289 1 0.000856 1560.000000 -0.003332 -0.000022 0.007027
290 1 0.000864 1560.000000 -0.000121 -0.003435 0.005056
291 1 0.000851 1560.000000 -0.001678 0.001704 0.000468
292 1 0.000752 1560.000000 -0.001152 0.000852 0.008156
293 1 0.000885 1560.000000 -0.001241 0.000862 0.009262
294 1 0.000950 1560.000000 0.001517 -0.002955 0.003075
295 1 0.000921 1560.000000 -0.003084 0.001574 0.008457
296 1 0.000857 1560.000000 -0.001612 -0.001471 0.008647
297 1 0.000870 1560.000000 0.002559 -0.000721 0.003135
298 1 0.000817 1560.000000 -0.001550 0.000986 0.004472
299 1 0.000888 1560.000000 0.001537 -0.002065 0.009242
300 1 0.000800 1560.000000 0.000242 -0.001092 0.004480
301 1 0.000885 1560.000000 0.000570 -0.003076 0.004390
302 1 0.000928 1560.000000 0.003252 -0.000838 0.008807
303 1 0.000801 1560.000000 -0.000732 -0.000574 0.008066
304 1 0.000921 1560.000000 0.001186 -0.001786 0.000476
305 1 0.000856 1560.000000 -0.000007 0.001503 0.006337
306 1 0.000825 1560.000000 -0.002913 0.000151 0.001131
307 1 0.000871 1560.000000 0.002148 -0.001825 0.007657
308 1 0.000859 1560.000000 -0.000509 -0.003352 0.008064
309 1 0.000854 1560.000000 0.001210 -0.001092 0.007457
310 1 0.000855 1560.000000 0.001957 0.002453 0.007733
311 1 0.000839 1560.000000 0.000171 0.002107 0.003626
312 1 0.000856 1560.000000 -0.002341 0.000840 0.004919
313 1 0.000875 1560.000000 -0.001490 0.002820 0.003036
314 1 0.000931 1560.000000 0.001451 0.003061 0.009265
315 1 0.000857 1560.000000 0.003184 -0.001365 0.002471
316 1 0.000861 1560.000000 -0.002371 -0.002256 0.005973
317 1 0.000894 1560.000000 -0.003195 0.001292 0.003571
318 1 0.000886 1560.000000 -0.002887 -0.001577 0.004834
319 1 0.000867 1560.000000 0.001217 -0.003153 0.006339
320 1 0.000764 1560.000000 0.000400 -0.003233 0.001412
321 1 0.000885 1560.000000 -0.001509 -0.001996 0.005432
322 1 0.000939 1560.000000 -0.001719 0.002771 0.008706
323 1 0.000964 1560.000000 -0.001664 -0.002170 0.009366
324 1 0.000866 1560.000000 -0.000538 -0.003303 0.002105
325 1 0.000864 1560.000000 0.002360 -0.002272 0.003368
326 1 0.000898 1560.000000 -0.000713 0.000524 0.005816
327 1 0.000860 1560.000000 -0.003224 0.001279 0.004718
328 1 0.000897 1560.000000 0.000348 0.002516 0.005816
329 1 0.000853 1560.000000 0.002275 0.000938 0.007693
330 1 0.000925 1560.000000 -0.002245 -0.002312 0.004939
331 1 0.000895 1560.000000 -0.001444 -0.000283 0.009226
332 1 0.000918 1560.000000 0.002184 -0.002664 0.000460
333 1 0.000885 1560.000000 0.000872 0.003292 0.006634
334 1 0.000891 1560.000000 0.002365 0.002494 0.006812
335 1 0.000845 1560.000000 0.000413 -0.000449 0.005400
336 1 0.000890 1560.000000 0.000180 0.002455 0.001816
337 1 0.000838 1560.000000 -0.003465 -0.000336 0.002395
338 1 0.000918 1560.000000 -0.000553 0.001631 0.008441
339 1 0.000816 1560.000000 -0.002112 -0.000364 0.006300
340 1 0.000937 1560.000000 0.002237 0.002376 0.009257
341 1 0.000904 1560.000000 -0.001762 0.001825 0.004063
342 1 0.000901 1560.000000 -0.000496 -0.002501 0.001393
343 1 0.000878 1560.000000 0.000444 -0.000979 0.003653
344 1 0.000916 1560.000000 0.002533 0.002165 0.004551
345 1 0.000805 1560.000000 0.001740 -0.000838 0.003632
346 1 0.000824 1560.000000 -0.002362 -0.001045 0.000910
347 1 0.000881 1560.000000 0.003086 0.000790 0.000512
348 1 0.000838 1560.000000 -0.003227 0.000822 0.001681
349 1 0.000943 1560.000000 0.003280 0.000922 0.003675
350 1 0.000984 1560.000000 0.002120 -0.002714 0.005992
351 1 0.000936 1560.000000 -0.002010 0.000851 0.001396
352 1 0.000834 1560.000000 -0.000625 0.003389 0.002830
353 1 0.000829 1560.000000 -0.000589 -0.000827 0.004330
354 1 0.000919 1560.000000 0.000785 0.000808 0.003614
355 1 0.000829 1560.000000 0.003005 0.001757 0.002126
356 1 0.000907 1560.000000 -0.003278 -0.001042 0.009263
357 1 0.000873 1560.000000 0.001825 0.000082 0.009394
358 1 0.000846 1560.000000 -0.002661 -0.000631 0.004689
359 1 0.000895 1560.000000 -0.003112 -0.001520 0.006443
360 1 0.000814 1560.000000 0.000448 -0.000578 0.001651
361 1 0.000771 1560.000000 0.001386 -0.000964 0.000615
362 1 0.000813 1560.000000 0.003099 -0.001282 0.000473
363 1 0.000817 1560.000000 0.001315 0.003139 0.000835
364 1 0.000955 1560.000000 -0.003360 0.000751 0.009444
365 1 0.000866 1560.000000 0.003154 0.000613 0.005215
366 1 0.000925 1560.000000 -0.001589 0.003088 0.006287
367 1 0.000879 1560.000000 0.000627 0.003205 0.001987
368 1 0.000915 1560.000000 0.003467 0.000169 0.004505
369 1 0.000875 1560.000000 0.001698 0.002426 0.002382
370 1 0.000840 1560.000000 -0.000827 -0.000152 0.007356
371 1 0.000869 1560.000000 0.000320 -0.003450 0.000494
372 1 0.000862 1560.000000 -0.001602 0.001935 0.004960
373 1 0.000909 1560.000000 0.002244 -0.002658 0.009027
374 1 0.000849 1560.000000 -0.000559 0.003413 0.009367
375 1 0.000853 1560.000000 -0.002602 0.002249 0.000497
376 1 0.000855 1560.000000 -0.002888 -0.000398 0.000486
377 1 0.000821 1560.000000 0.001994 0.000660 0.003907
378 1 0.000853 1560.000000 0.002190 -0.002396 0.001370
379 1 0.000892 1560.000000 -0.002565 -0.002232 0.007381
380 1 0.000914 1560.000000 -0.001364 0.003139 0.005130
381 1 0.000955 1560.000000 0.001690 0.001495 0.005550
382 1 0.000835 1560.000000 0.000379 0.003443 0.008191
383 1 0.000853 1560.000000 -0.001077 0.003169 0.008130
384 1 0.000866 1560.000000 -0.001295 -0.000672 0.002930
385 1 0.000847 1560.000000 0.001771 0.000514 0.001540
386 1 0.000856 1560.000000 0.002121 -0.000069 0.006474
387 1 0.000835 1560.000000 0.002101 0.002382 0.003662
388 1 0.000864 1560.000000 -0.002122 -0.002713 0.002898
389 1 0.000942 1560.000000 -0.001390 0.001391 0.007471
390 1 0.000919 1560.000000 0.002323 0.001144 0.002838
391 1 0.000797 1560.000000 0.002434 0.000823 0.001938
392 1 0.000918 1560.000000 -0.002050 -0.000718 0.002394
393 1 0.000892 1560.000000 0.002096 -0.001437 0.008662
394 1 0.000929 1560.000000 -0.003143 -0.001327 0.000514
395 1 0.000912 1560.000000 -0.000084 0.003463 0.004448
396 1 0.000921 1560.000000 0.000734 -0.002494 0.009357
397 1 0.000822 1560.000000 -0.002940 0.000644 0.004086
398 1 0.000872 1560.000000 -0.000508 -0.000832 0.001437
399 1 0.000845 1560.000000 0.000785 0.002370 0.009386
400 1 0.000892 1560.000000 -0.000432 0.002211 0.006776
