#LAMMPS data file created by matlab.
529 atoms

3 atom types

-0.0050000000 0.0050000000 xlo xhi
-0.0050000000 0.0050000000 ylo yhi
0.0000000000 0.0200000000 zlo zhi

Atoms

3001 2 0.0008000000 1560.0000000000 -0.0036492693 -0.0036492693 0.0104000000
3002 2 0.0008000000 1560.0000000000 -0.0036492693 -0.0033333333 0.0104000000
3003 2 0.0008000000 1560.0000000000 -0.0036492693 -0.0030000000 0.0104000000
3004 2 0.0008000000 1560.0000000000 -0.0036492693 -0.0026666667 0.0104000000
3005 2 0.0008000000 1560.0000000000 -0.0036492693 -0.0023333333 0.0104000000
3006 2 0.0008000000 1560.0000000000 -0.0036492693 -0.0020000000 0.0104000000
3007 2 0.0008000000 1560.0000000000 -0.0036492693 -0.0016666667 0.0104000000
3008 2 0.0008000000 1560.0000000000 -0.0036492693 -0.0013333333 0.0104000000
3009 2 0.0008000000 1560.0000000000 -0.0036492693 -0.0010000000 0.0104000000
3010 2 0.0008000000 1560.0000000000 -0.0036492693 -0.0006666667 0.0104000000
3011 2 0.0008000000 1560.0000000000 -0.0036492693 -0.0003333333 0.0104000000
3012 2 0.0008000000 1560.0000000000 -0.0036492693 0.0000000000 0.0104000000
3013 2 0.0008000000 1560.0000000000 -0.0036492693 0.0003333333 0.0104000000
3014 2 0.0008000000 1560.0000000000 -0.0036492693 0.0006666667 0.0104000000
3015 2 0.0008000000 1560.0000000000 -0.0036492693 0.0010000000 0.0104000000
3016 2 0.0008000000 1560.0000000000 -0.0036492693 0.0013333333 0.0104000000
3017 2 0.0008000000 1560.0000000000 -0.0036492693 0.0016666667 0.0104000000
3018 2 0.0008000000 1560.0000000000 -0.0036492693 0.0020000000 0.0104000000
3019 2 0.0008000000 1560.0000000000 -0.0036492693 0.0023333333 0.0104000000
3020 2 0.0008000000 1560.0000000000 -0.0036492693 0.0026666667 0.0104000000
3021 2 0.0008000000 1560.0000000000 -0.0036492693 0.0030000000 0.0104000000
3022 2 0.0008000000 1560.0000000000 -0.0036492693 0.0033333333 0.0104000000
3023 2 0.0008000000 1560.0000000000 -0.0036492693 0.0036492693 0.0104000000
3024 2 0.0008000000 1560.0000000000 -0.0033333333 -0.0036492693 0.0104000000
3025 2 0.0008000000 1560.0000000000 -0.0033333333 -0.0033333333 0.0104000000
3026 2 0.0008000000 1560.0000000000 -0.0033333333 -0.0030000000 0.0104000000
3027 2 0.0008000000 1560.0000000000 -0.0033333333 -0.0026666667 0.0104000000
3028 2 0.0008000000 1560.0000000000 -0.0033333333 -0.0023333333 0.0104000000
3029 2 0.0008000000 1560.0000000000 -0.0033333333 -0.0020000000 0.0104000000
3030 2 0.0008000000 1560.0000000000 -0.0033333333 -0.0016666667 0.0104000000
3031 2 0.0008000000 1560.0000000000 -0.0033333333 -0.0013333333 0.0104000000
3032 2 0.0008000000 1560.0000000000 -0.0033333333 -0.0010000000 0.0104000000
3033 2 0.0008000000 1560.0000000000 -0.0033333333 -0.0006666667 0.0104000000
3034 2 0.0008000000 1560.0000000000 -0.0033333333 -0.0003333333 0.0104000000
3035 2 0.0008000000 1560.0000000000 -0.0033333333 0.0000000000 0.0104000000
3036 2 0.0008000000 1560.0000000000 -0.0033333333 0.0003333333 0.0104000000
3037 2 0.0008000000 1560.0000000000 -0.0033333333 0.0006666667 0.0104000000
3038 2 0.0008000000 1560.0000000000 -0.0033333333 0.0010000000 0.0104000000
3039 2 0.0008000000 1560.0000000000 -0.0033333333 0.0013333333 0.0104000000
3040 2 0.0008000000 1560.0000000000 -0.0033333333 0.0016666667 0.0104000000
3041 2 0.0008000000 1560.0000000000 -0.0033333333 0.0020000000 0.0104000000
3042 2 0.0008000000 1560.0000000000 -0.0033333333 0.0023333333 0.0104000000
3043 2 0.0008000000 1560.0000000000 -0.0033333333 0.0026666667 0.0104000000
3044 2 0.0008000000 1560.0000000000 -0.0033333333 0.0030000000 0.0104000000
3045 2 0.0008000000 1560.0000000000 -0.0033333333 0.0033333333 0.0104000000
3046 2 0.0008000000 1560.0000000000 -0.0033333333 0.0036492693 0.0104000000
3047 2 0.0008000000 1560.0000000000 -0.0030000000 -0.0036492693 0.0104000000
3048 2 0.0008000000 1560.0000000000 -0.0030000000 -0.0033333333 0.0104000000
3049 2 0.0008000000 1560.0000000000 -0.0030000000 -0.0030000000 0.0104000000
3050 2 0.0008000000 1560.0000000000 -0.0030000000 -0.0026666667 0.0104000000
3051 2 0.0008000000 1560.0000000000 -0.0030000000 -0.0023333333 0.0104000000
3052 2 0.0008000000 1560.0000000000 -0.0030000000 -0.0020000000 0.0104000000
3053 2 0.0008000000 1560.0000000000 -0.0030000000 -0.0016666667 0.0104000000
3054 2 0.0008000000 1560.0000000000 -0.0030000000 -0.0013333333 0.0104000000
3055 2 0.0008000000 1560.0000000000 -0.0030000000 -0.0010000000 0.0104000000
3056 2 0.0008000000 1560.0000000000 -0.0030000000 -0.0006666667 0.0104000000
3057 2 0.0008000000 1560.0000000000 -0.0030000000 -0.0003333333 0.0104000000
3058 2 0.0008000000 1560.0000000000 -0.0030000000 0.0000000000 0.0104000000
3059 2 0.0008000000 1560.0000000000 -0.0030000000 0.0003333333 0.0104000000
3060 2 0.0008000000 1560.0000000000 -0.0030000000 0.0006666667 0.0104000000
3061 2 0.0008000000 1560.0000000000 -0.0030000000 0.0010000000 0.0104000000
3062 2 0.0008000000 1560.0000000000 -0.0030000000 0.0013333333 0.0104000000
3063 2 0.0008000000 1560.0000000000 -0.0030000000 0.0016666667 0.0104000000
3064 2 0.0008000000 1560.0000000000 -0.0030000000 0.0020000000 0.0104000000
3065 2 0.0008000000 1560.0000000000 -0.0030000000 0.0023333333 0.0104000000
3066 2 0.0008000000 1560.0000000000 -0.0030000000 0.0026666667 0.0104000000
3067 2 0.0008000000 1560.0000000000 -0.0030000000 0.0030000000 0.0104000000
3068 2 0.0008000000 1560.0000000000 -0.0030000000 0.0033333333 0.0104000000
3069 2 0.0008000000 1560.0000000000 -0.0030000000 0.0036492693 0.0104000000
3070 2 0.0008000000 1560.0000000000 -0.0026666667 -0.0036492693 0.0104000000
3071 2 0.0008000000 1560.0000000000 -0.0026666667 -0.0033333333 0.0104000000
3072 2 0.0008000000 1560.0000000000 -0.0026666667 -0.0030000000 0.0104000000
3073 2 0.0008000000 1560.0000000000 -0.0026666667 -0.0026666667 0.0104000000
3074 2 0.0008000000 1560.0000000000 -0.0026666667 -0.0023333333 0.0104000000
3075 2 0.0008000000 1560.0000000000 -0.0026666667 -0.0020000000 0.0104000000
3076 2 0.0008000000 1560.0000000000 -0.0026666667 -0.0016666667 0.0104000000
3077 2 0.0008000000 1560.0000000000 -0.0026666667 -0.0013333333 0.0104000000
3078 2 0.0008000000 1560.0000000000 -0.0026666667 -0.0010000000 0.0104000000
3079 2 0.0008000000 1560.0000000000 -0.0026666667 -0.0006666667 0.0104000000
3080 2 0.0008000000 1560.0000000000 -0.0026666667 -0.0003333333 0.0104000000
3081 2 0.0008000000 1560.0000000000 -0.0026666667 0.0000000000 0.0104000000
3082 2 0.0008000000 1560.0000000000 -0.0026666667 0.0003333333 0.0104000000
3083 2 0.0008000000 1560.0000000000 -0.0026666667 0.0006666667 0.0104000000
3084 2 0.0008000000 1560.0000000000 -0.0026666667 0.0010000000 0.0104000000
3085 2 0.0008000000 1560.0000000000 -0.0026666667 0.0013333333 0.0104000000
3086 2 0.0008000000 1560.0000000000 -0.0026666667 0.0016666667 0.0104000000
3087 2 0.0008000000 1560.0000000000 -0.0026666667 0.0020000000 0.0104000000
3088 2 0.0008000000 1560.0000000000 -0.0026666667 0.0023333333 0.0104000000
3089 2 0.0008000000 1560.0000000000 -0.0026666667 0.0026666667 0.0104000000
3090 2 0.0008000000 1560.0000000000 -0.0026666667 0.0030000000 0.0104000000
3091 2 0.0008000000 1560.0000000000 -0.0026666667 0.0033333333 0.0104000000
3092 2 0.0008000000 1560.0000000000 -0.0026666667 0.0036492693 0.0104000000
3093 2 0.0008000000 1560.0000000000 -0.0023333333 -0.0036492693 0.0104000000
3094 2 0.0008000000 1560.0000000000 -0.0023333333 -0.0033333333 0.0104000000
3095 2 0.0008000000 1560.0000000000 -0.0023333333 -0.0030000000 0.0104000000
3096 2 0.0008000000 1560.0000000000 -0.0023333333 -0.0026666667 0.0104000000
3097 2 0.0008000000 1560.0000000000 -0.0023333333 -0.0023333333 0.0104000000
3098 2 0.0008000000 1560.0000000000 -0.0023333333 -0.0020000000 0.0104000000
3099 2 0.0008000000 1560.0000000000 -0.0023333333 -0.0016666667 0.0104000000
3100 2 0.0008000000 1560.0000000000 -0.0023333333 -0.0013333333 0.0104000000
3101 2 0.0008000000 1560.0000000000 -0.0023333333 -0.0010000000 0.0104000000
3102 2 0.0008000000 1560.0000000000 -0.0023333333 -0.0006666667 0.0104000000
3103 2 0.0008000000 1560.0000000000 -0.0023333333 -0.0003333333 0.0104000000
3104 2 0.0008000000 1560.0000000000 -0.0023333333 0.0000000000 0.0104000000
3105 2 0.0008000000 1560.0000000000 -0.0023333333 0.0003333333 0.0104000000
3106 2 0.0008000000 1560.0000000000 -0.0023333333 0.0006666667 0.0104000000
3107 2 0.0008000000 1560.0000000000 -0.0023333333 0.0010000000 0.0104000000
3108 2 0.0008000000 1560.0000000000 -0.0023333333 0.0013333333 0.0104000000
3109 2 0.0008000000 1560.0000000000 -0.0023333333 0.0016666667 0.0104000000
3110 2 0.0008000000 1560.0000000000 -0.0023333333 0.0020000000 0.0104000000
3111 2 0.0008000000 1560.0000000000 -0.0023333333 0.0023333333 0.0104000000
3112 2 0.0008000000 1560.0000000000 -0.0023333333 0.0026666667 0.0104000000
3113 2 0.0008000000 1560.0000000000 -0.0023333333 0.0030000000 0.0104000000
3114 2 0.0008000000 1560.0000000000 -0.0023333333 0.0033333333 0.0104000000
3115 2 0.0008000000 1560.0000000000 -0.0023333333 0.0036492693 0.0104000000
3116 2 0.0008000000 1560.0000000000 -0.0020000000 -0.0036492693 0.0104000000
3117 2 0.0008000000 1560.0000000000 -0.0020000000 -0.0033333333 0.0104000000
3118 2 0.0008000000 1560.0000000000 -0.0020000000 -0.0030000000 0.0104000000
3119 2 0.0008000000 1560.0000000000 -0.0020000000 -0.0026666667 0.0104000000
3120 2 0.0008000000 1560.0000000000 -0.0020000000 -0.0023333333 0.0104000000
3121 2 0.0008000000 1560.0000000000 -0.0020000000 -0.0020000000 0.0104000000
3122 2 0.0008000000 1560.0000000000 -0.0020000000 -0.0016666667 0.0104000000
3123 2 0.0008000000 1560.0000000000 -0.0020000000 -0.0013333333 0.0104000000
3124 2 0.0008000000 1560.0000000000 -0.0020000000 -0.0010000000 0.0104000000
3125 2 0.0008000000 1560.0000000000 -0.0020000000 -0.0006666667 0.0104000000
3126 2 0.0008000000 1560.0000000000 -0.0020000000 -0.0003333333 0.0104000000
3127 2 0.0008000000 1560.0000000000 -0.0020000000 0.0000000000 0.0104000000
3128 2 0.0008000000 1560.0000000000 -0.0020000000 0.0003333333 0.0104000000
3129 2 0.0008000000 1560.0000000000 -0.0020000000 0.0006666667 0.0104000000
3130 2 0.0008000000 1560.0000000000 -0.0020000000 0.0010000000 0.0104000000
3131 2 0.0008000000 1560.0000000000 -0.0020000000 0.0013333333 0.0104000000
3132 2 0.0008000000 1560.0000000000 -0.0020000000 0.0016666667 0.0104000000
3133 2 0.0008000000 1560.0000000000 -0.0020000000 0.0020000000 0.0104000000
3134 2 0.0008000000 1560.0000000000 -0.0020000000 0.0023333333 0.0104000000
3135 2 0.0008000000 1560.0000000000 -0.0020000000 0.0026666667 0.0104000000
3136 2 0.0008000000 1560.0000000000 -0.0020000000 0.0030000000 0.0104000000
3137 2 0.0008000000 1560.0000000000 -0.0020000000 0.0033333333 0.0104000000
3138 2 0.0008000000 1560.0000000000 -0.0020000000 0.0036492693 0.0104000000
3139 2 0.0008000000 1560.0000000000 -0.0016666667 -0.0036492693 0.0104000000
3140 2 0.0008000000 1560.0000000000 -0.0016666667 -0.0033333333 0.0104000000
3141 2 0.0008000000 1560.0000000000 -0.0016666667 -0.0030000000 0.0104000000
3142 2 0.0008000000 1560.0000000000 -0.0016666667 -0.0026666667 0.0104000000
3143 2 0.0008000000 1560.0000000000 -0.0016666667 -0.0023333333 0.0104000000
3144 2 0.0008000000 1560.0000000000 -0.0016666667 -0.0020000000 0.0104000000
3145 2 0.0008000000 1560.0000000000 -0.0016666667 -0.0016666667 0.0104000000
3146 2 0.0008000000 1560.0000000000 -0.0016666667 -0.0013333333 0.0104000000
3147 2 0.0008000000 1560.0000000000 -0.0016666667 -0.0010000000 0.0104000000
3148 2 0.0008000000 1560.0000000000 -0.0016666667 -0.0006666667 0.0104000000
3149 2 0.0008000000 1560.0000000000 -0.0016666667 -0.0003333333 0.0104000000
3150 2 0.0008000000 1560.0000000000 -0.0016666667 0.0000000000 0.0104000000
3151 2 0.0008000000 1560.0000000000 -0.0016666667 0.0003333333 0.0104000000
3152 2 0.0008000000 1560.0000000000 -0.0016666667 0.0006666667 0.0104000000
3153 2 0.0008000000 1560.0000000000 -0.0016666667 0.0010000000 0.0104000000
3154 2 0.0008000000 1560.0000000000 -0.0016666667 0.0013333333 0.0104000000
3155 2 0.0008000000 1560.0000000000 -0.0016666667 0.0016666667 0.0104000000
3156 2 0.0008000000 1560.0000000000 -0.0016666667 0.0020000000 0.0104000000
3157 2 0.0008000000 1560.0000000000 -0.0016666667 0.0023333333 0.0104000000
3158 2 0.0008000000 1560.0000000000 -0.0016666667 0.0026666667 0.0104000000
3159 2 0.0008000000 1560.0000000000 -0.0016666667 0.0030000000 0.0104000000
3160 2 0.0008000000 1560.0000000000 -0.0016666667 0.0033333333 0.0104000000
3161 2 0.0008000000 1560.0000000000 -0.0016666667 0.0036492693 0.0104000000
3162 2 0.0008000000 1560.0000000000 -0.0013333333 -0.0036492693 0.0104000000
3163 2 0.0008000000 1560.0000000000 -0.0013333333 -0.0033333333 0.0104000000
3164 2 0.0008000000 1560.0000000000 -0.0013333333 -0.0030000000 0.0104000000
3165 2 0.0008000000 1560.0000000000 -0.0013333333 -0.0026666667 0.0104000000
3166 2 0.0008000000 1560.0000000000 -0.0013333333 -0.0023333333 0.0104000000
3167 2 0.0008000000 1560.0000000000 -0.0013333333 -0.0020000000 0.0104000000
3168 2 0.0008000000 1560.0000000000 -0.0013333333 -0.0016666667 0.0104000000
3169 2 0.0008000000 1560.0000000000 -0.0013333333 -0.0013333333 0.0104000000
3170 2 0.0008000000 1560.0000000000 -0.0013333333 -0.0010000000 0.0104000000
3171 2 0.0008000000 1560.0000000000 -0.0013333333 -0.0006666667 0.0104000000
3172 2 0.0008000000 1560.0000000000 -0.0013333333 -0.0003333333 0.0104000000
3173 2 0.0008000000 1560.0000000000 -0.0013333333 0.0000000000 0.0104000000
3174 2 0.0008000000 1560.0000000000 -0.0013333333 0.0003333333 0.0104000000
3175 2 0.0008000000 1560.0000000000 -0.0013333333 0.0006666667 0.0104000000
3176 2 0.0008000000 1560.0000000000 -0.0013333333 0.0010000000 0.0104000000
3177 2 0.0008000000 1560.0000000000 -0.0013333333 0.0013333333 0.0104000000
3178 2 0.0008000000 1560.0000000000 -0.0013333333 0.0016666667 0.0104000000
3179 2 0.0008000000 1560.0000000000 -0.0013333333 0.0020000000 0.0104000000
3180 2 0.0008000000 1560.0000000000 -0.0013333333 0.0023333333 0.0104000000
3181 2 0.0008000000 1560.0000000000 -0.0013333333 0.0026666667 0.0104000000
3182 2 0.0008000000 1560.0000000000 -0.0013333333 0.0030000000 0.0104000000
3183 2 0.0008000000 1560.0000000000 -0.0013333333 0.0033333333 0.0104000000
3184 2 0.0008000000 1560.0000000000 -0.0013333333 0.0036492693 0.0104000000
3185 2 0.0008000000 1560.0000000000 -0.0010000000 -0.0036492693 0.0104000000
3186 2 0.0008000000 1560.0000000000 -0.0010000000 -0.0033333333 0.0104000000
3187 2 0.0008000000 1560.0000000000 -0.0010000000 -0.0030000000 0.0104000000
3188 2 0.0008000000 1560.0000000000 -0.0010000000 -0.0026666667 0.0104000000
3189 2 0.0008000000 1560.0000000000 -0.0010000000 -0.0023333333 0.0104000000
3190 2 0.0008000000 1560.0000000000 -0.0010000000 -0.0020000000 0.0104000000
3191 2 0.0008000000 1560.0000000000 -0.0010000000 -0.0016666667 0.0104000000
3192 2 0.0008000000 1560.0000000000 -0.0010000000 -0.0013333333 0.0104000000
3193 2 0.0008000000 1560.0000000000 -0.0010000000 -0.0010000000 0.0104000000
3194 2 0.0008000000 1560.0000000000 -0.0010000000 -0.0006666667 0.0104000000
3195 2 0.0008000000 1560.0000000000 -0.0010000000 -0.0003333333 0.0104000000
3196 2 0.0008000000 1560.0000000000 -0.0010000000 0.0000000000 0.0104000000
3197 2 0.0008000000 1560.0000000000 -0.0010000000 0.0003333333 0.0104000000
3198 2 0.0008000000 1560.0000000000 -0.0010000000 0.0006666667 0.0104000000
3199 2 0.0008000000 1560.0000000000 -0.0010000000 0.0010000000 0.0104000000
3200 2 0.0008000000 1560.0000000000 -0.0010000000 0.0013333333 0.0104000000
3201 2 0.0008000000 1560.0000000000 -0.0010000000 0.0016666667 0.0104000000
3202 2 0.0008000000 1560.0000000000 -0.0010000000 0.0020000000 0.0104000000
3203 2 0.0008000000 1560.0000000000 -0.0010000000 0.0023333333 0.0104000000
3204 2 0.0008000000 1560.0000000000 -0.0010000000 0.0026666667 0.0104000000
3205 2 0.0008000000 1560.0000000000 -0.0010000000 0.0030000000 0.0104000000
3206 2 0.0008000000 1560.0000000000 -0.0010000000 0.0033333333 0.0104000000
3207 2 0.0008000000 1560.0000000000 -0.0010000000 0.0036492693 0.0104000000
3208 2 0.0008000000 1560.0000000000 -0.0006666667 -0.0036492693 0.0104000000
3209 2 0.0008000000 1560.0000000000 -0.0006666667 -0.0033333333 0.0104000000
3210 2 0.0008000000 1560.0000000000 -0.0006666667 -0.0030000000 0.0104000000
3211 2 0.0008000000 1560.0000000000 -0.0006666667 -0.0026666667 0.0104000000
3212 2 0.0008000000 1560.0000000000 -0.0006666667 -0.0023333333 0.0104000000
3213 2 0.0008000000 1560.0000000000 -0.0006666667 -0.0020000000 0.0104000000
3214 2 0.0008000000 1560.0000000000 -0.0006666667 -0.0016666667 0.0104000000
3215 2 0.0008000000 1560.0000000000 -0.0006666667 -0.0013333333 0.0104000000
3216 2 0.0008000000 1560.0000000000 -0.0006666667 -0.0010000000 0.0104000000
3217 2 0.0008000000 1560.0000000000 -0.0006666667 -0.0006666667 0.0104000000
3218 2 0.0008000000 1560.0000000000 -0.0006666667 -0.0003333333 0.0104000000
3219 2 0.0008000000 1560.0000000000 -0.0006666667 0.0000000000 0.0104000000
3220 2 0.0008000000 1560.0000000000 -0.0006666667 0.0003333333 0.0104000000
3221 2 0.0008000000 1560.0000000000 -0.0006666667 0.0006666667 0.0104000000
3222 2 0.0008000000 1560.0000000000 -0.0006666667 0.0010000000 0.0104000000
3223 2 0.0008000000 1560.0000000000 -0.0006666667 0.0013333333 0.0104000000
3224 2 0.0008000000 1560.0000000000 -0.0006666667 0.0016666667 0.0104000000
3225 2 0.0008000000 1560.0000000000 -0.0006666667 0.0020000000 0.0104000000
3226 2 0.0008000000 1560.0000000000 -0.0006666667 0.0023333333 0.0104000000
3227 2 0.0008000000 1560.0000000000 -0.0006666667 0.0026666667 0.0104000000
3228 2 0.0008000000 1560.0000000000 -0.0006666667 0.0030000000 0.0104000000
3229 2 0.0008000000 1560.0000000000 -0.0006666667 0.0033333333 0.0104000000
3230 2 0.0008000000 1560.0000000000 -0.0006666667 0.0036492693 0.0104000000
3231 2 0.0008000000 1560.0000000000 -0.0003333333 -0.0036492693 0.0104000000
3232 2 0.0008000000 1560.0000000000 -0.0003333333 -0.0033333333 0.0104000000
3233 2 0.0008000000 1560.0000000000 -0.0003333333 -0.0030000000 0.0104000000
3234 2 0.0008000000 1560.0000000000 -0.0003333333 -0.0026666667 0.0104000000
3235 2 0.0008000000 1560.0000000000 -0.0003333333 -0.0023333333 0.0104000000
3236 2 0.0008000000 1560.0000000000 -0.0003333333 -0.0020000000 0.0104000000
3237 2 0.0008000000 1560.0000000000 -0.0003333333 -0.0016666667 0.0104000000
3238 2 0.0008000000 1560.0000000000 -0.0003333333 -0.0013333333 0.0104000000
3239 2 0.0008000000 1560.0000000000 -0.0003333333 -0.0010000000 0.0104000000
3240 2 0.0008000000 1560.0000000000 -0.0003333333 -0.0006666667 0.0104000000
3241 2 0.0008000000 1560.0000000000 -0.0003333333 -0.0003333333 0.0104000000
3242 2 0.0008000000 1560.0000000000 -0.0003333333 0.0000000000 0.0104000000
3243 2 0.0008000000 1560.0000000000 -0.0003333333 0.0003333333 0.0104000000
3244 2 0.0008000000 1560.0000000000 -0.0003333333 0.0006666667 0.0104000000
3245 2 0.0008000000 1560.0000000000 -0.0003333333 0.0010000000 0.0104000000
3246 2 0.0008000000 1560.0000000000 -0.0003333333 0.0013333333 0.0104000000
3247 2 0.0008000000 1560.0000000000 -0.0003333333 0.0016666667 0.0104000000
3248 2 0.0008000000 1560.0000000000 -0.0003333333 0.0020000000 0.0104000000
3249 2 0.0008000000 1560.0000000000 -0.0003333333 0.0023333333 0.0104000000
3250 2 0.0008000000 1560.0000000000 -0.0003333333 0.0026666667 0.0104000000
3251 2 0.0008000000 1560.0000000000 -0.0003333333 0.0030000000 0.0104000000
3252 2 0.0008000000 1560.0000000000 -0.0003333333 0.0033333333 0.0104000000
3253 2 0.0008000000 1560.0000000000 -0.0003333333 0.0036492693 0.0104000000
3254 2 0.0008000000 1560.0000000000 0.0000000000 -0.0036492693 0.0104000000
3255 2 0.0008000000 1560.0000000000 0.0000000000 -0.0033333333 0.0104000000
3256 2 0.0008000000 1560.0000000000 0.0000000000 -0.0030000000 0.0104000000
3257 2 0.0008000000 1560.0000000000 0.0000000000 -0.0026666667 0.0104000000
3258 2 0.0008000000 1560.0000000000 0.0000000000 -0.0023333333 0.0104000000
3259 2 0.0008000000 1560.0000000000 0.0000000000 -0.0020000000 0.0104000000
3260 2 0.0008000000 1560.0000000000 0.0000000000 -0.0016666667 0.0104000000
3261 2 0.0008000000 1560.0000000000 0.0000000000 -0.0013333333 0.0104000000
3262 2 0.0008000000 1560.0000000000 0.0000000000 -0.0010000000 0.0104000000
3263 2 0.0008000000 1560.0000000000 0.0000000000 -0.0006666667 0.0104000000
3264 2 0.0008000000 1560.0000000000 0.0000000000 -0.0003333333 0.0104000000
3265 2 0.0008000000 1560.0000000000 0.0000000000 0.0000000000 0.0104000000
3266 2 0.0008000000 1560.0000000000 0.0000000000 0.0003333333 0.0104000000
3267 2 0.0008000000 1560.0000000000 0.0000000000 0.0006666667 0.0104000000
3268 2 0.0008000000 1560.0000000000 0.0000000000 0.0010000000 0.0104000000
3269 2 0.0008000000 1560.0000000000 0.0000000000 0.0013333333 0.0104000000
3270 2 0.0008000000 1560.0000000000 0.0000000000 0.0016666667 0.0104000000
3271 2 0.0008000000 1560.0000000000 0.0000000000 0.0020000000 0.0104000000
3272 2 0.0008000000 1560.0000000000 0.0000000000 0.0023333333 0.0104000000
3273 2 0.0008000000 1560.0000000000 0.0000000000 0.0026666667 0.0104000000
3274 2 0.0008000000 1560.0000000000 0.0000000000 0.0030000000 0.0104000000
3275 2 0.0008000000 1560.0000000000 0.0000000000 0.0033333333 0.0104000000
3276 2 0.0008000000 1560.0000000000 0.0000000000 0.0036492693 0.0104000000
3277 2 0.0008000000 1560.0000000000 0.0003333333 -0.0036492693 0.0104000000
3278 2 0.0008000000 1560.0000000000 0.0003333333 -0.0033333333 0.0104000000
3279 2 0.0008000000 1560.0000000000 0.0003333333 -0.0030000000 0.0104000000
3280 2 0.0008000000 1560.0000000000 0.0003333333 -0.0026666667 0.0104000000
3281 2 0.0008000000 1560.0000000000 0.0003333333 -0.0023333333 0.0104000000
3282 2 0.0008000000 1560.0000000000 0.0003333333 -0.0020000000 0.0104000000
3283 2 0.0008000000 1560.0000000000 0.0003333333 -0.0016666667 0.0104000000
3284 2 0.0008000000 1560.0000000000 0.0003333333 -0.0013333333 0.0104000000
3285 2 0.0008000000 1560.0000000000 0.0003333333 -0.0010000000 0.0104000000
3286 2 0.0008000000 1560.0000000000 0.0003333333 -0.0006666667 0.0104000000
3287 2 0.0008000000 1560.0000000000 0.0003333333 -0.0003333333 0.0104000000
3288 2 0.0008000000 1560.0000000000 0.0003333333 0.0000000000 0.0104000000
3289 2 0.0008000000 1560.0000000000 0.0003333333 0.0003333333 0.0104000000
3290 2 0.0008000000 1560.0000000000 0.0003333333 0.0006666667 0.0104000000
3291 2 0.0008000000 1560.0000000000 0.0003333333 0.0010000000 0.0104000000
3292 2 0.0008000000 1560.0000000000 0.0003333333 0.0013333333 0.0104000000
3293 2 0.0008000000 1560.0000000000 0.0003333333 0.0016666667 0.0104000000
3294 2 0.0008000000 1560.0000000000 0.0003333333 0.0020000000 0.0104000000
3295 2 0.0008000000 1560.0000000000 0.0003333333 0.0023333333 0.0104000000
3296 2 0.0008000000 1560.0000000000 0.0003333333 0.0026666667 0.0104000000
3297 2 0.0008000000 1560.0000000000 0.0003333333 0.0030000000 0.0104000000
3298 2 0.0008000000 1560.0000000000 0.0003333333 0.0033333333 0.0104000000
3299 2 0.0008000000 1560.0000000000 0.0003333333 0.0036492693 0.0104000000
3300 2 0.0008000000 1560.0000000000 0.0006666667 -0.0036492693 0.0104000000
3301 2 0.0008000000 1560.0000000000 0.0006666667 -0.0033333333 0.0104000000
3302 2 0.0008000000 1560.0000000000 0.0006666667 -0.0030000000 0.0104000000
3303 2 0.0008000000 1560.0000000000 0.0006666667 -0.0026666667 0.0104000000
3304 2 0.0008000000 1560.0000000000 0.0006666667 -0.0023333333 0.0104000000
3305 2 0.0008000000 1560.0000000000 0.0006666667 -0.0020000000 0.0104000000
3306 2 0.0008000000 1560.0000000000 0.0006666667 -0.0016666667 0.0104000000
3307 2 0.0008000000 1560.0000000000 0.0006666667 -0.0013333333 0.0104000000
3308 2 0.0008000000 1560.0000000000 0.0006666667 -0.0010000000 0.0104000000
3309 2 0.0008000000 1560.0000000000 0.0006666667 -0.0006666667 0.0104000000
3310 2 0.0008000000 1560.0000000000 0.0006666667 -0.0003333333 0.0104000000
3311 2 0.0008000000 1560.0000000000 0.0006666667 0.0000000000 0.0104000000
3312 2 0.0008000000 1560.0000000000 0.0006666667 0.0003333333 0.0104000000
3313 2 0.0008000000 1560.0000000000 0.0006666667 0.0006666667 0.0104000000
3314 2 0.0008000000 1560.0000000000 0.0006666667 0.0010000000 0.0104000000
3315 2 0.0008000000 1560.0000000000 0.0006666667 0.0013333333 0.0104000000
3316 2 0.0008000000 1560.0000000000 0.0006666667 0.0016666667 0.0104000000
3317 2 0.0008000000 1560.0000000000 0.0006666667 0.0020000000 0.0104000000
3318 2 0.0008000000 1560.0000000000 0.0006666667 0.0023333333 0.0104000000
3319 2 0.0008000000 1560.0000000000 0.0006666667 0.0026666667 0.0104000000
3320 2 0.0008000000 1560.0000000000 0.0006666667 0.0030000000 0.0104000000
3321 2 0.0008000000 1560.0000000000 0.0006666667 0.0033333333 0.0104000000
3322 2 0.0008000000 1560.0000000000 0.0006666667 0.0036492693 0.0104000000
3323 2 0.0008000000 1560.0000000000 0.0010000000 -0.0036492693 0.0104000000
3324 2 0.0008000000 1560.0000000000 0.0010000000 -0.0033333333 0.0104000000
3325 2 0.0008000000 1560.0000000000 0.0010000000 -0.0030000000 0.0104000000
3326 2 0.0008000000 1560.0000000000 0.0010000000 -0.0026666667 0.0104000000
3327 2 0.0008000000 1560.0000000000 0.0010000000 -0.0023333333 0.0104000000
3328 2 0.0008000000 1560.0000000000 0.0010000000 -0.0020000000 0.0104000000
3329 2 0.0008000000 1560.0000000000 0.0010000000 -0.0016666667 0.0104000000
3330 2 0.0008000000 1560.0000000000 0.0010000000 -0.0013333333 0.0104000000
3331 2 0.0008000000 1560.0000000000 0.0010000000 -0.0010000000 0.0104000000
3332 2 0.0008000000 1560.0000000000 0.0010000000 -0.0006666667 0.0104000000
3333 2 0.0008000000 1560.0000000000 0.0010000000 -0.0003333333 0.0104000000
3334 2 0.0008000000 1560.0000000000 0.0010000000 0.0000000000 0.0104000000
3335 2 0.0008000000 1560.0000000000 0.0010000000 0.0003333333 0.0104000000
3336 2 0.0008000000 1560.0000000000 0.0010000000 0.0006666667 0.0104000000
3337 2 0.0008000000 1560.0000000000 0.0010000000 0.0010000000 0.0104000000
3338 2 0.0008000000 1560.0000000000 0.0010000000 0.0013333333 0.0104000000
3339 2 0.0008000000 1560.0000000000 0.0010000000 0.0016666667 0.0104000000
3340 2 0.0008000000 1560.0000000000 0.0010000000 0.0020000000 0.0104000000
3341 2 0.0008000000 1560.0000000000 0.0010000000 0.0023333333 0.0104000000
3342 2 0.0008000000 1560.0000000000 0.0010000000 0.0026666667 0.0104000000
3343 2 0.0008000000 1560.0000000000 0.0010000000 0.0030000000 0.0104000000
3344 2 0.0008000000 1560.0000000000 0.0010000000 0.0033333333 0.0104000000
3345 2 0.0008000000 1560.0000000000 0.0010000000 0.0036492693 0.0104000000
3346 2 0.0008000000 1560.0000000000 0.0013333333 -0.0036492693 0.0104000000
3347 2 0.0008000000 1560.0000000000 0.0013333333 -0.0033333333 0.0104000000
3348 2 0.0008000000 1560.0000000000 0.0013333333 -0.0030000000 0.0104000000
3349 2 0.0008000000 1560.0000000000 0.0013333333 -0.0026666667 0.0104000000
3350 2 0.0008000000 1560.0000000000 0.0013333333 -0.0023333333 0.0104000000
3351 2 0.0008000000 1560.0000000000 0.0013333333 -0.0020000000 0.0104000000
3352 2 0.0008000000 1560.0000000000 0.0013333333 -0.0016666667 0.0104000000
3353 2 0.0008000000 1560.0000000000 0.0013333333 -0.0013333333 0.0104000000
3354 2 0.0008000000 1560.0000000000 0.0013333333 -0.0010000000 0.0104000000
3355 2 0.0008000000 1560.0000000000 0.0013333333 -0.0006666667 0.0104000000
3356 2 0.0008000000 1560.0000000000 0.0013333333 -0.0003333333 0.0104000000
3357 2 0.0008000000 1560.0000000000 0.0013333333 0.0000000000 0.0104000000
3358 2 0.0008000000 1560.0000000000 0.0013333333 0.0003333333 0.0104000000
3359 2 0.0008000000 1560.0000000000 0.0013333333 0.0006666667 0.0104000000
3360 2 0.0008000000 1560.0000000000 0.0013333333 0.0010000000 0.0104000000
3361 2 0.0008000000 1560.0000000000 0.0013333333 0.0013333333 0.0104000000
3362 2 0.0008000000 1560.0000000000 0.0013333333 0.0016666667 0.0104000000
3363 2 0.0008000000 1560.0000000000 0.0013333333 0.0020000000 0.0104000000
3364 2 0.0008000000 1560.0000000000 0.0013333333 0.0023333333 0.0104000000
3365 2 0.0008000000 1560.0000000000 0.0013333333 0.0026666667 0.0104000000
3366 2 0.0008000000 1560.0000000000 0.0013333333 0.0030000000 0.0104000000
3367 2 0.0008000000 1560.0000000000 0.0013333333 0.0033333333 0.0104000000
3368 2 0.0008000000 1560.0000000000 0.0013333333 0.0036492693 0.0104000000
3369 2 0.0008000000 1560.0000000000 0.0016666667 -0.0036492693 0.0104000000
3370 2 0.0008000000 1560.0000000000 0.0016666667 -0.0033333333 0.0104000000
3371 2 0.0008000000 1560.0000000000 0.0016666667 -0.0030000000 0.0104000000
3372 2 0.0008000000 1560.0000000000 0.0016666667 -0.0026666667 0.0104000000
3373 2 0.0008000000 1560.0000000000 0.0016666667 -0.0023333333 0.0104000000
3374 2 0.0008000000 1560.0000000000 0.0016666667 -0.0020000000 0.0104000000
3375 2 0.0008000000 1560.0000000000 0.0016666667 -0.0016666667 0.0104000000
3376 2 0.0008000000 1560.0000000000 0.0016666667 -0.0013333333 0.0104000000
3377 2 0.0008000000 1560.0000000000 0.0016666667 -0.0010000000 0.0104000000
3378 2 0.0008000000 1560.0000000000 0.0016666667 -0.0006666667 0.0104000000
3379 2 0.0008000000 1560.0000000000 0.0016666667 -0.0003333333 0.0104000000
3380 2 0.0008000000 1560.0000000000 0.0016666667 0.0000000000 0.0104000000
3381 2 0.0008000000 1560.0000000000 0.0016666667 0.0003333333 0.0104000000
3382 2 0.0008000000 1560.0000000000 0.0016666667 0.0006666667 0.0104000000
3383 2 0.0008000000 1560.0000000000 0.0016666667 0.0010000000 0.0104000000
3384 2 0.0008000000 1560.0000000000 0.0016666667 0.0013333333 0.0104000000
3385 2 0.0008000000 1560.0000000000 0.0016666667 0.0016666667 0.0104000000
3386 2 0.0008000000 1560.0000000000 0.0016666667 0.0020000000 0.0104000000
3387 2 0.0008000000 1560.0000000000 0.0016666667 0.0023333333 0.0104000000
3388 2 0.0008000000 1560.0000000000 0.0016666667 0.0026666667 0.0104000000
3389 2 0.0008000000 1560.0000000000 0.0016666667 0.0030000000 0.0104000000
3390 2 0.0008000000 1560.0000000000 0.0016666667 0.0033333333 0.0104000000
3391 2 0.0008000000 1560.0000000000 0.0016666667 0.0036492693 0.0104000000