#LAMMPS data file created by matlab.
3000 atoms

3 atom types

-0.0050000000 0.0050000000 xlo xhi
-0.0050000000 0.0050000000 ylo yhi
0.0000000000 0.0200000000 zlo zhi

Atoms

1 1 0.0004861589 1560.0000000000 -0.0028536177 0.0020497748 0.0068132698
2 1 0.0004789201 1560.0000000000 -0.0008788756 0.0005377139 0.0083614682
3 1 0.0005126811 1560.0000000000 -0.0007951355 -0.0003617012 0.0092812830
4 1 0.0004967062 1560.0000000000 0.0033262322 0.0034374262 0.0074621998
5 1 0.0004401418 1560.0000000000 0.0022281517 -0.0002381446 0.0080764466
6 1 0.0004724724 1560.0000000000 -0.0014133196 0.0004805451 0.0025927883
7 1 0.0005086335 1560.0000000000 0.0023085478 0.0024093881 0.0040335061
8 1 0.0004677027 1560.0000000000 -0.0036918789 -0.0027858431 0.0024604251
9 1 0.0004763932 1560.0000000000 0.0035667184 -0.0027387523 0.0034195457
10 1 0.0004692993 1560.0000000000 0.0021067983 0.0005911282 0.0014632451
11 1 0.0004680411 1560.0000000000 0.0034003216 -0.0022527131 0.0002382390
12 1 0.0004441071 1560.0000000000 0.0006130530 0.0029986008 0.0028041722
13 1 0.0004783573 1560.0000000000 0.0026493213 0.0028976560 0.0042889053
14 1 0.0004301003 1560.0000000000 0.0023627953 -0.0029410492 0.0049330933
15 1 0.0004692548 1560.0000000000 0.0033596112 0.0020566367 0.0076650174
16 1 0.0004960984 1560.0000000000 -0.0032508446 0.0024632583 0.0073191976
17 1 0.0004697273 1560.0000000000 0.0000661157 0.0033847247 0.0028963363
18 1 0.0004637767 1560.0000000000 -0.0028407652 -0.0011679949 0.0036798008
19 1 0.0005038482 1560.0000000000 -0.0037094681 0.0019041093 0.0086970982
20 1 0.0004714880 1560.0000000000 -0.0031625832 0.0030755588 0.0035537126
21 1 0.0005298210 1560.0000000000 0.0000106963 -0.0024522876 0.0027616418
22 1 0.0004784986 1560.0000000000 0.0016912936 0.0028097867 0.0072963753
23 1 0.0005263005 1560.0000000000 -0.0025806960 -0.0034807641 0.0012188764
24 1 0.0004681183 1560.0000000000 0.0018230230 0.0001742065 0.0038952752
25 1 0.0004613471 1560.0000000000 -0.0009700832 -0.0013000837 0.0012636875
26 1 0.0004840681 1560.0000000000 -0.0014612870 0.0011181965 0.0069637851
27 1 0.0004711868 1560.0000000000 0.0029993579 0.0002156120 0.0056699601
28 1 0.0004732387 1560.0000000000 -0.0031167679 -0.0036481540 0.0039664873
29 1 0.0005368967 1560.0000000000 -0.0031772350 -0.0033464066 0.0008665846
30 1 0.0004874648 1560.0000000000 0.0017969629 -0.0005382798 0.0042479291
31 1 0.0004849847 1560.0000000000 -0.0020846617 -0.0017933575 0.0066010911
32 1 0.0004577712 1560.0000000000 0.0030287773 -0.0006561539 0.0051812329
33 1 0.0003996958 1560.0000000000 0.0002076119 -0.0007531381 0.0065549541
34 1 0.0004813983 1560.0000000000 0.0013998856 0.0017559196 0.0088823151
35 1 0.0005333295 1560.0000000000 -0.0037060061 0.0002444868 0.0037229907
36 1 0.0005079788 1560.0000000000 -0.0022292343 0.0010703046 0.0040956675
37 1 0.0005002023 1560.0000000000 -0.0030146039 0.0031848107 0.0060839470
38 1 0.0004879050 1560.0000000000 0.0017896457 -0.0020032716 0.0058117533
39 1 0.0004548923 1560.0000000000 0.0029543360 0.0025890561 0.0018194668
40 1 0.0004685904 1560.0000000000 -0.0016137247 -0.0011529903 0.0040875698
41 1 0.0004366254 1560.0000000000 -0.0007959109 0.0005910575 0.0039024446
42 1 0.0004838224 1560.0000000000 0.0015420007 0.0032430758 0.0019076060
43 1 0.0004922907 1560.0000000000 -0.0031192620 -0.0016879953 0.0073152476
44 1 0.0004789958 1560.0000000000 0.0025823531 -0.0023224012 0.0071013069
45 1 0.0004838981 1560.0000000000 -0.0001770472 -0.0001154555 0.0051645390
46 1 0.0004914344 1560.0000000000 -0.0010186629 0.0005496867 0.0066861300
47 1 0.0005123389 1560.0000000000 0.0030243821 -0.0029158767 0.0091977194
48 1 0.0004881888 1560.0000000000 -0.0001472452 0.0027889351 0.0078822379
49 1 0.0005134120 1560.0000000000 -0.0019994680 0.0007824193 0.0067511979
50 1 0.0005004798 1560.0000000000 -0.0027518257 0.0010590043 0.0084290291
51 1 0.0004881941 1560.0000000000 0.0030003459 -0.0018495438 0.0027146438
52 1 0.0005016156 1560.0000000000 -0.0016317978 -0.0010350530 0.0065113647
53 1 0.0004686486 1560.0000000000 0.0009517725 0.0031449741 0.0054889700
54 1 0.0004299376 1560.0000000000 0.0031008341 -0.0025447929 0.0016010317
55 1 0.0005128176 1560.0000000000 -0.0027584589 0.0000328826 0.0007434549
56 1 0.0004891270 1560.0000000000 0.0007812145 0.0036153059 0.0069886846
57 1 0.0004613711 1560.0000000000 -0.0005510304 -0.0036598427 0.0069746011
58 1 0.0004563393 1560.0000000000 0.0004909462 0.0002704492 0.0070574914
59 1 0.0004413319 1560.0000000000 0.0001125317 -0.0031512149 0.0067711204
60 1 0.0004845621 1560.0000000000 -0.0032585340 -0.0033747984 0.0031240871
61 1 0.0004709911 1560.0000000000 -0.0013353023 -0.0036055249 0.0057693682
62 1 0.0004924167 1560.0000000000 -0.0032964496 0.0004435181 0.0020394943
63 1 0.0004994180 1560.0000000000 -0.0017010242 -0.0020615186 0.0069695246
64 1 0.0004936068 1560.0000000000 0.0003273005 0.0004873300 0.0003821466
65 1 0.0005268346 1560.0000000000 0.0006869805 0.0014099241 0.0072303967
66 1 0.0004827411 1560.0000000000 0.0000229985 -0.0036703587 0.0040364307
67 1 0.0005097615 1560.0000000000 -0.0003766594 0.0017745110 0.0081529731
68 1 0.0004716966 1560.0000000000 0.0023982403 -0.0027826095 0.0036737767
69 1 0.0004585852 1560.0000000000 -0.0024879614 0.0003653035 0.0052887800
70 1 0.0005349429 1560.0000000000 0.0019950702 -0.0027099865 0.0071125646
71 1 0.0004795999 1560.0000000000 0.0005423137 -0.0028890803 0.0059239735
72 1 0.0004892033 1560.0000000000 0.0022967292 0.0010203545 0.0027503435
73 1 0.0004932424 1560.0000000000 -0.0004367152 0.0002085121 0.0080703712
74 1 0.0005245715 1560.0000000000 -0.0035361537 -0.0013903713 0.0068799138
75 1 0.0004788206 1560.0000000000 0.0004879984 -0.0018158201 0.0016197459
76 1 0.0005192735 1560.0000000000 -0.0016620424 0.0004578895 0.0078622436
77 1 0.0004779375 1560.0000000000 -0.0034647236 -0.0005395407 0.0066465568
78 1 0.0004957446 1560.0000000000 0.0015883246 -0.0034395677 0.0013322721
79 1 0.0004537458 1560.0000000000 -0.0030831623 0.0012170678 0.0070205637
80 1 0.0004596463 1560.0000000000 -0.0026805699 0.0026448054 0.0059166008
81 1 0.0004897072 1560.0000000000 0.0002918323 -0.0014302736 0.0048774681
82 1 0.0005434142 1560.0000000000 0.0031898149 0.0029124275 0.0090077287
83 1 0.0005144081 1560.0000000000 0.0031291537 0.0012666480 0.0091667566
84 1 0.0004808599 1560.0000000000 -0.0018795370 0.0015974567 0.0091943892
85 1 0.0005147167 1560.0000000000 -0.0005533915 -0.0003721560 0.0003482909
86 1 0.0004935381 1560.0000000000 0.0029453701 0.0019503683 0.0071746964
87 1 0.0004824662 1560.0000000000 -0.0031916560 0.0009942003 0.0086631678
88 1 0.0005211505 1560.0000000000 0.0024559404 0.0024769682 0.0079237052
89 1 0.0004422547 1560.0000000000 -0.0000896713 0.0014262988 0.0075559976
90 1 0.0004688748 1560.0000000000 0.0018932082 0.0016008652 0.0039767582
91 1 0.0005349295 1560.0000000000 -0.0013119584 0.0018780162 0.0070915669
92 1 0.0004560022 1560.0000000000 -0.0029860940 0.0035487294 0.0084945691
93 1 0.0004951396 1560.0000000000 0.0024488819 0.0007783881 0.0009734130
94 1 0.0004764858 1560.0000000000 0.0011817880 0.0010381838 0.0079806797
95 1 0.0004857908 1560.0000000000 0.0033490588 0.0009701242 0.0011344789
96 1 0.0004878643 1560.0000000000 0.0000340364 0.0035034525 0.0043281114
97 1 0.0005049086 1560.0000000000 -0.0020675856 0.0026940817 0.0029002331
98 1 0.0005146158 1560.0000000000 0.0036841150 -0.0004600915 0.0071930497
99 1 0.0004931500 1560.0000000000 -0.0012037390 -0.0028890306 0.0017250886
100 1 0.0004670297 1560.0000000000 -0.0020019472 0.0035678983 0.0046388529
101 1 0.0004914096 1560.0000000000 -0.0006387036 0.0026438330 0.0020502597
102 1 0.0005112366 1560.0000000000 0.0030253520 -0.0027029676 0.0068290105
103 1 0.0004721563 1560.0000000000 -0.0017656562 -0.0034653610 0.0076772311
104 1 0.0004866286 1560.0000000000 0.0017591676 -0.0034876753 0.0080932255
105 1 0.0004674895 1560.0000000000 -0.0006032084 0.0012687110 0.0029757678
106 1 0.0005138744 1560.0000000000 0.0010414266 0.0000210184 0.0011131024
107 1 0.0004465089 1560.0000000000 0.0001431054 0.0016611657 0.0023383146
108 1 0.0004800755 1560.0000000000 -0.0030647954 -0.0025728575 0.0013070262
109 1 0.0005029273 1560.0000000000 -0.0018955732 -0.0034516638 0.0006812060
110 1 0.0004549370 1560.0000000000 0.0029384680 -0.0011152724 0.0046772347
111 1 0.0004929138 1560.0000000000 -0.0035185516 0.0035063629 0.0089280764
112 1 0.0004723814 1560.0000000000 -0.0016502906 0.0035380481 0.0022607746
113 1 0.0004706928 1560.0000000000 -0.0009824045 -0.0037531763 0.0005952567
114 1 0.0005015099 1560.0000000000 -0.0008901588 0.0017623141 0.0062109200
115 1 0.0004852598 1560.0000000000 -0.0016888235 0.0030121815 0.0092374241
116 1 0.0004514580 1560.0000000000 0.0020456713 -0.0002190109 0.0060019608
117 1 0.0004641687 1560.0000000000 0.0017505987 0.0031724804 0.0004886521
118 1 0.0004823829 1560.0000000000 0.0020807590 -0.0003696880 0.0020434809
119 1 0.0004680394 1560.0000000000 -0.0035231413 0.0023300512 0.0077629142
120 1 0.0004677731 1560.0000000000 0.0032047956 -0.0011740799 0.0026869524
121 1 0.0004850714 1560.0000000000 0.0031631604 -0.0018338228 0.0071703743
122 1 0.0004911201 1560.0000000000 -0.0011662845 -0.0032320932 0.0086249596
123 1 0.0004463861 1560.0000000000 0.0025846018 0.0028439557 0.0090409111
124 1 0.0005098500 1560.0000000000 -0.0010937274 0.0010448227 0.0020980059
125 1 0.0004742907 1560.0000000000 -0.0035495249 -0.0012793943 0.0089195494
126 1 0.0004804833 1560.0000000000 -0.0006601370 0.0026004125 0.0003648834
127 1 0.0004592171 1560.0000000000 0.0005814956 -0.0029186957 0.0012523157
128 1 0.0004679972 1560.0000000000 0.0030402494 -0.0012981367 0.0076649889
129 1 0.0004917434 1560.0000000000 -0.0003702878 0.0023844716 0.0025527192
130 1 0.0004511375 1560.0000000000 -0.0002267498 0.0001857258 0.0016289010
131 1 0.0005029466 1560.0000000000 0.0017141502 -0.0013209084 0.0023620921
132 1 0.0004529184 1560.0000000000 0.0028299217 0.0014977667 0.0028379068
133 1 0.0004794007 1560.0000000000 -0.0006621503 0.0017970130 0.0072612555
134 1 0.0004834790 1560.0000000000 -0.0003744227 -0.0033604381 0.0091328347
135 1 0.0005043702 1560.0000000000 -0.0009536520 -0.0023252072 0.0022474589
136 1 0.0005097556 1560.0000000000 0.0000675458 -0.0032811732 0.0062285762
137 1 0.0004642316 1560.0000000000 -0.0032336538 -0.0025890318 0.0046578283
138 1 0.0004849527 1560.0000000000 -0.0008885078 -0.0004576124 0.0066843159
139 1 0.0004889743 1560.0000000000 0.0019288178 0.0005688057 0.0022896960
140 1 0.0004647568 1560.0000000000 -0.0028726340 -0.0017749372 0.0005211773
141 1 0.0005165436 1560.0000000000 -0.0025778438 0.0027710061 0.0082432863
142 1 0.0004952306 1560.0000000000 0.0014886199 -0.0000749874 0.0072339906
143 1 0.0004510227 1560.0000000000 0.0009101619 0.0008765140 0.0008824781
144 1 0.0004878222 1560.0000000000 0.0010654417 -0.0036072672 0.0030050252
145 1 0.0005008371 1560.0000000000 -0.0032438599 -0.0014227747 0.0052275544
146 1 0.0004597215 1560.0000000000 -0.0011534628 -0.0017778630 0.0082517739
147 1 0.0004748366 1560.0000000000 0.0006300534 -0.0026600780 0.0019406797
148 1 0.0004595892 1560.0000000000 0.0001528826 0.0029200917 0.0020359905
149 1 0.0004436977 1560.0000000000 -0.0023815688 -0.0037243436 0.0057030133
150 1 0.0005178303 1560.0000000000 0.0013495807 0.0030281723 0.0008632541
151 1 0.0004722239 1560.0000000000 0.0008665472 0.0001679644 0.0033688106
152 1 0.0004766757 1560.0000000000 -0.0017456272 -0.0008983973 0.0085143405
153 1 0.0004965400 1560.0000000000 0.0007095080 -0.0009162448 0.0044036325
154 1 0.0004651541 1560.0000000000 -0.0018619574 -0.0029110040 0.0026058269
155 1 0.0004654553 1560.0000000000 -0.0005810228 -0.0031112018 0.0069661825
156 1 0.0004972777 1560.0000000000 0.0000452204 0.0007574362 0.0041791602
157 1 0.0004926780 1560.0000000000 0.0030974413 -0.0000675145 0.0045416364
158 1 0.0004796916 1560.0000000000 0.0031273128 0.0024314866 0.0064626963
159 1 0.0004463213 1560.0000000000 -0.0000265848 -0.0006058067 0.0092966648
160 1 0.0005046985 1560.0000000000 -0.0015694138 0.0030563724 0.0068518242
161 1 0.0005347585 1560.0000000000 -0.0023143796 -0.0004694951 0.0083522660
162 1 0.0004621131 1560.0000000000 -0.0034271794 -0.0000330950 0.0004812785
163 1 0.0004602098 1560.0000000000 0.0031086934 -0.0006840998 0.0093063985
164 1 0.0005269529 1560.0000000000 0.0014474645 -0.0030796866 0.0040933274
165 1 0.0004525264 1560.0000000000 0.0023906282 0.0003983945 0.0079494752
166 1 0.0004445631 1560.0000000000 -0.0031418701 0.0012236984 0.0024025646
167 1 0.0005032365 1560.0000000000 0.0035585640 0.0035883201 0.0013988116
168 1 0.0004898957 1560.0000000000 0.0023415069 0.0032161624 0.0061415162
169 1 0.0005089170 1560.0000000000 -0.0013740597 0.0024022240 0.0058874861
170 1 0.0005330890 1560.0000000000 -0.0000987380 -0.0026196532 0.0034250809
171 1 0.0005011515 1560.0000000000 -0.0026364645 0.0025873331 0.0089034391
172 1 0.0004699243 1560.0000000000 0.0033516032 -0.0025494683 0.0023888455
173 1 0.0004740400 1560.0000000000 -0.0033937192 -0.0011212838 0.0084522859
174 1 0.0004993770 1560.0000000000 0.0016295622 -0.0006879580 0.0052587158
175 1 0.0004550346 1560.0000000000 -0.0028112623 -0.0024836414 0.0052334357
176 1 0.0004426122 1560.0000000000 0.0032369539 0.0016314720 0.0078943761
177 1 0.0005035045 1560.0000000000 -0.0031457258 0.0005564855 0.0003599883
178 1 0.0005357977 1560.0000000000 0.0007234096 -0.0007211453 0.0007987736
179 1 0.0004906355 1560.0000000000 0.0025772775 0.0028808491 0.0034535003
180 1 0.0005094532 1560.0000000000 -0.0032961477 -0.0022438580 0.0022825308
181 1 0.0005206198 1560.0000000000 -0.0024912417 0.0021870873 0.0011533911
182 1 0.0004778067 1560.0000000000 0.0036023891 -0.0037258875 0.0086499076
183 1 0.0004565623 1560.0000000000 0.0034043235 -0.0026649774 0.0060062196
184 1 0.0004787873 1560.0000000000 0.0010229394 -0.0006594278 0.0075599962
185 1 0.0005159703 1560.0000000000 0.0000907576 0.0001118454 0.0092894040
186 1 0.0005020719 1560.0000000000 -0.0005945126 -0.0034295143 0.0014548736
187 1 0.0004604835 1560.0000000000 -0.0033130121 -0.0015590594 0.0013418900
188 1 0.0004697080 1560.0000000000 -0.0036248658 0.0005139650 0.0028400371
189 1 0.0004620426 1560.0000000000 -0.0000280884 -0.0037510954 0.0011204581
190 1 0.0004646486 1560.0000000000 -0.0014929729 -0.0010381268 0.0026383155
191 1 0.0004665628 1560.0000000000 0.0022087825 0.0026156108 0.0075172710
192 1 0.0005075881 1560.0000000000 0.0002976905 -0.0025257980 0.0076919478
193 1 0.0004549410 1560.0000000000 -0.0023985579 -0.0017624306 0.0039160494
194 1 0.0004847239 1560.0000000000 -0.0035821194 -0.0028446097 0.0040037993
195 1 0.0004369191 1560.0000000000 0.0000587338 -0.0016517955 0.0066058220
196 1 0.0005266649 1560.0000000000 0.0020855436 0.0016931098 0.0045523977
197 1 0.0005051620 1560.0000000000 0.0010517994 -0.0027981474 0.0029369691
198 1 0.0004954969 1560.0000000000 -0.0002410934 -0.0010492159 0.0066090077
199 1 0.0004654490 1560.0000000000 -0.0022908705 0.0033720705 0.0088452624
200 1 0.0004769541 1560.0000000000 0.0001126378 0.0023989719 0.0073388272
201 1 0.0004739128 1560.0000000000 -0.0003679441 -0.0001770804 0.0010487873
202 1 0.0004887188 1560.0000000000 -0.0031023445 0.0002326192 0.0029750532
203 1 0.0004809205 1560.0000000000 0.0008072296 -0.0014214524 0.0064619811
204 1 0.0005041681 1560.0000000000 -0.0009793154 -0.0031449664 0.0028561287
205 1 0.0004678796 1560.0000000000 -0.0028131676 -0.0016413596 0.0079590473
206 1 0.0004776704 1560.0000000000 0.0012073690 0.0033446671 0.0028804929
207 1 0.0004708425 1560.0000000000 -0.0014681379 0.0003221496 0.0066032650
208 1 0.0004713413 1560.0000000000 -0.0007172136 0.0031370499 0.0015341002
209 1 0.0005056960 1560.0000000000 -0.0005945055 0.0015734409 0.0048252066
210 1 0.0004665242 1560.0000000000 0.0000450808 0.0014144892 0.0006513643
211 1 0.0005271971 1560.0000000000 0.0028595695 0.0027062289 0.0071184393
212 1 0.0004695522 1560.0000000000 -0.0036450310 -0.0022000240 0.0050248977
213 1 0.0004694686 1560.0000000000 0.0002715776 -0.0016457992 0.0061035753
214 1 0.0004634761 1560.0000000000 -0.0036906221 -0.0014385495 0.0082335058
215 1 0.0004879246 1560.0000000000 -0.0017151876 -0.0035538006 0.0061448825
216 1 0.0004480591 1560.0000000000 0.0018956067 -0.0026700585 0.0054381268
217 1 0.0004214160 1560.0000000000 -0.0003351575 -0.0033365736 0.0025214305
218 1 0.0004703112 1560.0000000000 0.0024841621 -0.0016692243 0.0064150864
219 1 0.0004993701 1560.0000000000 -0.0020589365 0.0031880265 0.0003894260
220 1 0.0004731406 1560.0000000000 -0.0012699189 -0.0009245681 0.0019380627
221 1 0.0004644665 1560.0000000000 -0.0013027694 0.0005249697 0.0045288231
222 1 0.0004394059 1560.0000000000 -0.0036266749 0.0032906522 0.0043724475
223 1 0.0004901693 1560.0000000000 -0.0029408967 -0.0028931735 0.0062667214
224 1 0.0004955371 1560.0000000000 -0.0019989692 0.0013392887 0.0079679426
225 1 0.0004736690 1560.0000000000 0.0026008074 -0.0026223687 0.0090475675
226 1 0.0004832485 1560.0000000000 -0.0017611869 0.0007270959 0.0023465877
227 1 0.0004882608 1560.0000000000 -0.0026632136 0.0011868733 0.0074266357
228 1 0.0004742779 1560.0000000000 -0.0036396457 -0.0017341521 0.0018642642
229 1 0.0004597226 1560.0000000000 -0.0018007928 0.0033988252 0.0016302015
230 1 0.0004366041 1560.0000000000 0.0033103175 -0.0022788243 0.0049224234
231 1 0.0004583141 1560.0000000000 -0.0035624893 0.0014578489 0.0046010243
232 1 0.0004449300 1560.0000000000 -0.0016194206 0.0035142886 0.0075410419
233 1 0.0005034188 1560.0000000000 0.0007324210 0.0024807058 0.0011156427
234 1 0.0004719056 1560.0000000000 -0.0008215731 -0.0023393159 0.0056348377
235 1 0.0004943061 1560.0000000000 0.0017057619 -0.0008114055 0.0038328678
236 1 0.0004826606 1560.0000000000 -0.0013021484 -0.0031180494 0.0051167841
237 1 0.0004670251 1560.0000000000 0.0010713235 -0.0033064874 0.0026323220
238 1 0.0004660733 1560.0000000000 -0.0024963133 0.0031074139 0.0077253202
239 1 0.0004706941 1560.0000000000 -0.0017612954 -0.0005386057 0.0006734029
240 1 0.0004541507 1560.0000000000 -0.0018241111 -0.0034651384 0.0018992639
241 1 0.0004944772 1560.0000000000 0.0021369818 0.0013451207 0.0058006214
242 1 0.0004985057 1560.0000000000 -0.0027778667 -0.0008468932 0.0008940574
243 1 0.0004745473 1560.0000000000 0.0010573183 -0.0027602838 0.0016227791
244 1 0.0005188813 1560.0000000000 0.0016159882 0.0003041025 0.0051006063
245 1 0.0004679275 1560.0000000000 0.0027176225 -0.0007368811 0.0005190956
246 1 0.0004837064 1560.0000000000 0.0011381311 0.0027518978 0.0024106953
247 1 0.0005040900 1560.0000000000 -0.0003620439 0.0009171617 0.0013502927
248 1 0.0004990339 1560.0000000000 0.0022644566 0.0025213495 0.0065700408
249 1 0.0005039268 1560.0000000000 -0.0030874560 0.0017406211 0.0079065309
250 1 0.0004618585 1560.0000000000 -0.0033803132 0.0024761244 0.0084168097
251 1 0.0004440500 1560.0000000000 -0.0010348506 0.0018399127 0.0028697847
252 1 0.0004664717 1560.0000000000 -0.0035768190 -0.0005849995 0.0044455023
253 1 0.0004925210 1560.0000000000 -0.0001008686 -0.0009520567 0.0077818404
254 1 0.0004937142 1560.0000000000 -0.0020802206 0.0005075252 0.0086939129
255 1 0.0004477541 1560.0000000000 -0.0003476842 0.0035709638 0.0063251958
256 1 0.0004899358 1560.0000000000 0.0012213137 0.0015579045 0.0003175547
257 1 0.0004604065 1560.0000000000 0.0000691335 -0.0011636498 0.0071592476
258 1 0.0005187682 1560.0000000000 0.0014151110 0.0001328341 0.0063887392
259 1 0.0004827726 1560.0000000000 0.0026908550 0.0009318847 0.0085551037
260 1 0.0004528641 1560.0000000000 0.0007858777 0.0034194772 0.0039473214
261 1 0.0004943474 1560.0000000000 0.0023560085 -0.0037166658 0.0010840226
262 1 0.0004515051 1560.0000000000 -0.0000604011 0.0034799089 0.0088868894
263 1 0.0004636377 1560.0000000000 -0.0001020511 0.0000085128 0.0083965725
264 1 0.0004678234 1560.0000000000 -0.0028441969 -0.0036302261 0.0051147099
265 1 0.0005297006 1560.0000000000 0.0019252106 0.0026825037 0.0053160096
266 1 0.0004715569 1560.0000000000 0.0003695124 -0.0029453328 0.0039500601
267 1 0.0005149082 1560.0000000000 0.0002852424 -0.0018243192 0.0044554164
268 1 0.0004796323 1560.0000000000 -0.0019562401 -0.0000226224 0.0024933278
269 1 0.0004730958 1560.0000000000 -0.0030679903 0.0001420595 0.0044364493
270 1 0.0004783833 1560.0000000000 0.0012085892 -0.0001182242 0.0092811858
271 1 0.0005112661 1560.0000000000 0.0001337695 -0.0022119062 0.0057146842
272 1 0.0004640759 1560.0000000000 0.0012187893 0.0023080978 0.0039726313
273 1 0.0004815735 1560.0000000000 0.0033192871 0.0029201295 0.0013736090
274 1 0.0004485995 1560.0000000000 0.0005277413 -0.0004627681 0.0080094509
275 1 0.0004615052 1560.0000000000 -0.0032843564 0.0019429656 0.0007364750
276 1 0.0005336220 1560.0000000000 0.0006257246 -0.0011876085 0.0014275311
277 1 0.0004752977 1560.0000000000 0.0016488032 0.0018157332 0.0019559547
278 1 0.0004484767 1560.0000000000 -0.0021955184 -0.0000237275 0.0030903870
279 1 0.0004737855 1560.0000000000 -0.0022188588 -0.0032923625 0.0059014939
280 1 0.0004670823 1560.0000000000 0.0006095051 -0.0018612643 0.0071661896
281 1 0.0004819684 1560.0000000000 0.0031838012 -0.0018290986 0.0093582595
282 1 0.0004390110 1560.0000000000 0.0004945871 -0.0033904935 0.0046977077
283 1 0.0004778678 1560.0000000000 -0.0011952010 0.0029191907 0.0054217783
284 1 0.0005261195 1560.0000000000 -0.0019310330 0.0005011749 0.0043727624
285 1 0.0004660223 1560.0000000000 0.0002158872 0.0017385532 0.0068554855
286 1 0.0004625837 1560.0000000000 -0.0005314338 0.0029891107 0.0087219862
287 1 0.0004896660 1560.0000000000 -0.0017940071 -0.0016489369 0.0060372501
288 1 0.0004816681 1560.0000000000 0.0022553491 -0.0008475011 0.0015504366
289 1 0.0004964413 1560.0000000000 -0.0014581467 -0.0024605343 0.0045136431
290 1 0.0004531517 1560.0000000000 -0.0034392714 -0.0020404566 0.0090944302
291 1 0.0005134828 1560.0000000000 0.0020135209 -0.0033066953 0.0091448353
292 1 0.0004916210 1560.0000000000 -0.0019454497 0.0015785219 0.0018737303
293 1 0.0004440991 1560.0000000000 0.0017598580 -0.0016990792 0.0064269854
294 1 0.0004230066 1560.0000000000 -0.0000404247 0.0017117503 0.0012427769
295 1 0.0004901295 1560.0000000000 -0.0013833304 -0.0023343010 0.0062374932
296 1 0.0004745229 1560.0000000000 0.0009014960 0.0032188911 0.0048663804
297 1 0.0004283606 1560.0000000000 0.0029440622 -0.0027480025 0.0060904173
298 1 0.0005227148 1560.0000000000 -0.0020297550 0.0012802188 0.0048746143
299 1 0.0005150626 1560.0000000000 -0.0014495005 0.0010857136 0.0075132431
300 1 0.0004904920 1560.0000000000 -0.0020781636 0.0013113650 0.0074443848
301 1 0.0004994931 1560.0000000000 0.0021199994 -0.0005538371 0.0030175827
302 1 0.0004713943 1560.0000000000 0.0014170202 -0.0002730139 0.0040122250
303 1 0.0004428528 1560.0000000000 -0.0027589702 0.0026011131 0.0074074546
304 1 0.0004982404 1560.0000000000 -0.0030582167 -0.0033407892 0.0017998731
305 1 0.0004710654 1560.0000000000 0.0017518166 0.0022407942 0.0029826693
306 1 0.0004812698 1560.0000000000 -0.0036418889 0.0010423952 0.0015549758
307 1 0.0005220520 1560.0000000000 0.0012230533 0.0026393439 0.0076710733
308 1 0.0004743063 1560.0000000000 0.0008809727 -0.0032925668 0.0066497055
309 1 0.0004963137 1560.0000000000 0.0029046071 0.0006948922 0.0063882217
310 1 0.0005006738 1560.0000000000 0.0033952494 0.0020074461 0.0088646957
311 1 0.0004623040 1560.0000000000 -0.0030293227 0.0002701452 0.0083257470
312 1 0.0004670720 1560.0000000000 0.0004728528 -0.0024821601 0.0037451195
313 1 0.0004909794 1560.0000000000 0.0024222708 0.0036158193 0.0075216714
314 1 0.0004953763 1560.0000000000 -0.0006154659 -0.0018309425 0.0022793370
315 1 0.0004415450 1560.0000000000 -0.0004396595 -0.0005652210 0.0068932527
316 1 0.0004981892 1560.0000000000 -0.0014717670 0.0001462124 0.0091527224
317 1 0.0004573940 1560.0000000000 0.0036279523 0.0026300745 0.0003394628
318 1 0.0004581825 1560.0000000000 -0.0010613231 -0.0006262885 0.0074490417
319 1 0.0004924347 1560.0000000000 0.0028319760 0.0004675366 0.0002538662
320 1 0.0004561640 1560.0000000000 -0.0027560803 -0.0010895211 0.0085210309
321 1 0.0005057952 1560.0000000000 -0.0032216611 0.0023009782 0.0042588618
322 1 0.0005231514 1560.0000000000 0.0027186779 0.0005369186 0.0091403407
323 1 0.0004743223 1560.0000000000 0.0006029506 0.0028434632 0.0070763737
324 1 0.0004793141 1560.0000000000 0.0008549530 -0.0025824143 0.0010120434
325 1 0.0004847060 1560.0000000000 0.0008765918 -0.0035139277 0.0014225300
326 1 0.0004999198 1560.0000000000 -0.0006076763 -0.0025644948 0.0031688792
327 1 0.0004523504 1560.0000000000 -0.0031765406 -0.0016272908 0.0065138268
328 1 0.0004268828 1560.0000000000 0.0028442048 0.0002759648 0.0067320414
329 1 0.0004861167 1560.0000000000 0.0027577365 -0.0002048308 0.0049407649
330 1 0.0004612928 1560.0000000000 -0.0024413476 -0.0035824354 0.0023157523
331 1 0.0004955861 1560.0000000000 -0.0031297161 -0.0000809059 0.0052120369
332 1 0.0004931802 1560.0000000000 0.0005317007 -0.0010179384 0.0054616826
333 1 0.0004592363 1560.0000000000 -0.0010724494 -0.0036167963 0.0063899416
334 1 0.0004543561 1560.0000000000 0.0010155138 0.0033731393 0.0017469432
335 1 0.0004902119 1560.0000000000 0.0018000117 0.0008658402 0.0029896627
336 1 0.0004885033 1560.0000000000 0.0020316919 -0.0023032760 0.0084263418
337 1 0.0004748761 1560.0000000000 -0.0005843413 0.0036066227 0.0004210620
338 1 0.0004842201 1560.0000000000 0.0001752258 0.0007961542 0.0070651304
339 1 0.0004858776 1560.0000000000 -0.0025558663 -0.0025405415 0.0029798961
340 1 0.0004853328 1560.0000000000 -0.0007019655 -0.0000709610 0.0026433745
341 1 0.0004820458 1560.0000000000 -0.0037424792 0.0026364905 0.0049639422
342 1 0.0004728653 1560.0000000000 0.0035592777 -0.0002143021 0.0007983608
343 1 0.0004736507 1560.0000000000 0.0035160021 -0.0001773414 0.0033214613
344 1 0.0005157516 1560.0000000000 -0.0026522123 0.0012687904 0.0027380131
345 1 0.0004436861 1560.0000000000 -0.0009935208 0.0010400141 0.0066688848
346 1 0.0004738412 1560.0000000000 -0.0018894341 0.0015300039 0.0038668543
347 1 0.0004254804 1560.0000000000 -0.0012870852 -0.0003400982 0.0044416585
348 1 0.0004820354 1560.0000000000 0.0010530056 -0.0003380627 0.0052789945
349 1 0.0005166276 1560.0000000000 -0.0012284358 0.0024815900 0.0040054003
350 1 0.0004860800 1560.0000000000 0.0018831347 0.0012624304 0.0013980841
351 1 0.0004763589 1560.0000000000 -0.0005779588 -0.0021263262 0.0051992228
352 1 0.0004748400 1560.0000000000 0.0012517393 0.0006768331 0.0043289820
353 1 0.0004945351 1560.0000000000 0.0008801217 0.0011218199 0.0062233626
354 1 0.0004607804 1560.0000000000 0.0026856495 -0.0032072713 0.0067835276
355 1 0.0005058774 1560.0000000000 0.0019831914 0.0018862259 0.0073808487
356 1 0.0004494697 1560.0000000000 -0.0034736848 0.0006117504 0.0078097703
357 1 0.0004631094 1560.0000000000 -0.0031576709 -0.0037006971 0.0078540908
358 1 0.0004734385 1560.0000000000 0.0027769816 -0.0017279529 0.0019108131
359 1 0.0004828619 1560.0000000000 0.0014927411 0.0027036648 0.0089793188
360 1 0.0004586998 1560.0000000000 0.0026380764 -0.0010487606 0.0057193585
361 1 0.0004688523 1560.0000000000 -0.0027731839 -0.0027829975 0.0082385367
362 1 0.0004763667 1560.0000000000 -0.0030383599 0.0023580770 0.0026186102
363 1 0.0004643039 1560.0000000000 0.0003699807 -0.0007615776 0.0018733226
364 1 0.0004702029 1560.0000000000 0.0015899350 0.0020059489 0.0049166276
365 1 0.0004894897 1560.0000000000 0.0015969541 0.0027618808 0.0035644888
366 1 0.0005168261 1560.0000000000 -0.0009031986 -0.0002510481 0.0047994216
367 1 0.0004913165 1560.0000000000 0.0008977283 0.0000165253 0.0021612975
368 1 0.0004912757 1560.0000000000 -0.0001569383 0.0034047426 0.0079649525
369 1 0.0004793940 1560.0000000000 0.0013825191 -0.0010840888 0.0048383501
370 1 0.0004840438 1560.0000000000 0.0002859717 0.0030071079 0.0083291359
371 1 0.0004700716 1560.0000000000 0.0034987953 0.0023282063 0.0009801238
372 1 0.0005108990 1560.0000000000 0.0000090521 0.0008592989 0.0079738085
373 1 0.0004830536 1560.0000000000 -0.0019748776 -0.0014388329 0.0035985552
374 1 0.0004721644 1560.0000000000 -0.0028630452 0.0003439168 0.0016457235
375 1 0.0004894407 1560.0000000000 -0.0002818940 -0.0018544326 0.0009018221
376 1 0.0005171364 1560.0000000000 0.0022589434 -0.0020230737 0.0045593539
377 1 0.0004452313 1560.0000000000 0.0013686602 0.0033809478 0.0092681449
378 1 0.0004245870 1560.0000000000 0.0036381844 -0.0007546183 0.0064325790
379 1 0.0004668688 1560.0000000000 -0.0006629979 -0.0027283875 0.0013227206
380 1 0.0004605611 1560.0000000000 -0.0025000843 -0.0002940833 0.0042117221
381 1 0.0004685675 1560.0000000000 0.0005108731 0.0032855088 0.0086869393
382 1 0.0005150537 1560.0000000000 -0.0012264222 -0.0017843724 0.0067049694
383 1 0.0004985726 1560.0000000000 0.0034178068 0.0024192779 0.0054327046
384 1 0.0004613641 1560.0000000000 0.0031826186 0.0033084827 0.0029427161
385 1 0.0005275274 1560.0000000000 0.0013961449 0.0000046301 0.0079800624
386 1 0.0004826201 1560.0000000000 0.0036274162 0.0008046715 0.0074596357
387 1 0.0004939513 1560.0000000000 0.0014770293 0.0007609280 0.0057963666
388 1 0.0004741330 1560.0000000000 0.0035209582 0.0021802716 0.0031253797
389 1 0.0005005650 1560.0000000000 -0.0005165782 -0.0009808251 0.0052366924
390 1 0.0004843123 1560.0000000000 0.0025360104 0.0016064083 0.0065765402
391 1 0.0004782195 1560.0000000000 0.0015505260 -0.0004599801 0.0062189646
392 1 0.0005025042 1560.0000000000 -0.0016358956 -0.0030076939 0.0066912161
393 1 0.0004479938 1560.0000000000 0.0003397299 -0.0004377215 0.0041733178
394 1 0.0004975881 1560.0000000000 -0.0001389415 0.0024861382 0.0064864713
395 1 0.0004698661 1560.0000000000 0.0021529476 -0.0025835922 0.0026501835
396 1 0.0004611127 1560.0000000000 0.0019813601 -0.0029773087 0.0044205270
397 1 0.0004536553 1560.0000000000 0.0036144937 -0.0026660892 0.0007173973
398 1 0.0004673929 1560.0000000000 -0.0014331721 0.0033598600 0.0048289003
399 1 0.0004763664 1560.0000000000 -0.0032804639 -0.0034668481 0.0053368997